LAMMPS data file for Nanoparticles
44000 atoms
2 atom types
-72.36012545582703 72.36012545582703 xlo xhi
-72.36012545582703 72.36012545582703 ylo yhi
-0.5 0.5 zlo zhi

Atoms

1 1 1 1 -49.6173 52.4656 0 0 0 0
 2 1 1 1 -49.7153 52.4456 0 0 0 0
 3 1 1 1 -49.8133 52.4255 0 0 0 0
 4 1 1 1 -49.9112 52.4054 0 0 0 0
 5 1 1 1 -50.0092 52.3854 0 0 0 0
 6 1 1 1 -50.1072 52.3653 0 0 0 0
 7 1 1 1 -50.2051 52.3452 0 0 0 0
 8 1 1 1 -50.3031 52.3252 0 0 0 0
 9 1 1 1 -50.4011 52.3051 0 0 0 0
 10 1 1 1 -50.499 52.285 0 0 0 0
 11 1 1 1 -50.597 52.265 0 0 0 0
 12 1 1 1 -50.6634 52.3398 0 0 0 0
 13 1 1 1 -50.7297 52.4146 0 0 0 0
 14 1 1 1 -50.7961 52.4894 0 0 0 0
 15 1 1 1 -50.8624 52.5642 0 0 0 0
 16 1 1 1 -50.9288 52.639 0 0 0 0
 17 1 1 1 -50.9952 52.7138 0 0 0 0
 18 1 1 1 -51.0615 52.7886 0 0 0 0
 19 1 1 1 -51.1279 52.8634 0 0 0 0
 20 1 1 1 -51.1943 52.9382 0 0 0 0
 21 1 1 1 -51.2606 53.013 0 0 0 0
 22 1 1 1 -51.1627 53.0331 0 0 0 0
 23 1 1 1 -51.0647 53.0532 0 0 0 0
 24 1 1 1 -50.9667 53.0732 0 0 0 0
 25 1 1 1 -50.8688 53.0933 0 0 0 0
 26 1 1 1 -50.7708 53.1134 0 0 0 0
 27 1 1 1 -50.6728 53.1334 0 0 0 0
 28 1 1 1 -50.5749 53.1535 0 0 0 0
 29 1 1 1 -50.4769 53.1736 0 0 0 0
 30 1 1 1 -50.3789 53.1936 0 0 0 0
 31 1 1 1 -50.281 53.2137 0 0 0 0
 32 1 1 1 -50.2146 53.1389 0 0 0 0
 33 1 1 1 -50.1482 53.0641 0 0 0 0
 34 1 1 1 -50.0819 52.9893 0 0 0 0
 35 1 1 1 -50.0155 52.9145 0 0 0 0
 36 1 1 1 -49.9491 52.8397 0 0 0 0
 37 1 1 1 -49.8828 52.7649 0 0 0 0
 38 1 1 1 -49.8164 52.6901 0 0 0 0
 39 1 1 1 -49.7501 52.6153 0 0 0 0
 40 1 1 1 -49.6837 52.5405 0 0 0 0
 41 2 1 1 -49.7416 52.7564 0 0 0 0
 42 2 1 1 -50.283 52.2272 0 0 0 0
 43 2 1 1 -51.1363 52.7222 0 0 0 0
 44 2 1 1 -50.5949 53.2515 0 0 0 0
 45 1 1 1 32.3008 -17.5023 0 0 0 0
 46 1 1 1 32.3078 -17.602 0 0 0 0
 47 1 1 1 32.3148 -17.7018 0 0 0 0
 48 1 1 1 32.3218 -17.8016 0 0 0 0
 49 1 1 1 32.3288 -17.9013 0 0 0 0
 50 1 1 1 32.3358 -18.0011 0 0 0 0
 51 1 1 1 32.3428 -18.1008 0 0 0 0
 52 1 1 1 32.3498 -18.2006 0 0 0 0
 53 1 1 1 32.3568 -18.3003 0 0 0 0
 54 1 1 1 32.3638 -18.4001 0 0 0 0
 55 1 1 1 32.3708 -18.4998 0 0 0 0
 56 1 1 1 32.2879 -18.5558 0 0 0 0
 57 1 1 1 32.205 -18.6117 0 0 0 0
 58 1 1 1 32.1221 -18.6677 0 0 0 0
 59 1 1 1 32.0392 -18.7236 0 0 0 0
 60 1 1 1 31.9563 -18.7795 0 0 0 0
 61 1 1 1 31.8734 -18.8355 0 0 0 0
 62 1 1 1 31.7905 -18.8914 0 0 0 0
 63 1 1 1 31.7077 -18.9474 0 0 0 0
 64 1 1 1 31.6248 -19.0033 0 0 0 0
 65 1 1 1 31.5419 -19.0592 0 0 0 0
 66 1 1 1 31.5349 -18.9595 0 0 0 0
 67 1 1 1 31.5279 -18.8597 0 0 0 0
 68 1 1 1 31.5209 -18.76 0 0 0 0
 69 1 1 1 31.5139 -18.6602 0 0 0 0
 70 1 1 1 31.5069 -18.5605 0 0 0 0
 71 1 1 1 31.4999 -18.4607 0 0 0 0
 72 1 1 1 31.4929 -18.361 0 0 0 0
 73 1 1 1 31.4859 -18.2612 0 0 0 0
 74 1 1 1 31.4789 -18.1615 0 0 0 0
 75 1 1 1 31.4719 -18.0617 0 0 0 0
 76 1 1 1 31.5548 -18.0058 0 0 0 0
 77 1 1 1 31.6376 -17.9498 0 0 0 0
 78 1 1 1 31.7205 -17.8939 0 0 0 0
 79 1 1 1 31.8034 -17.8379 0 0 0 0
 80 1 1 1 31.8863 -17.782 0 0 0 0
 81 1 1 1 31.9692 -17.7261 0 0 0 0
 82 1 1 1 32.0521 -17.6701 0 0 0 0
 83 1 1 1 32.135 -17.6142 0 0 0 0
 84 1 1 1 32.2179 -17.5582 0 0 0 0
 85 2 1 1 31.9962 -17.5872 0 0 0 0
 86 2 1 1 32.4495 -18.1936 0 0 0 0
 87 2 1 1 31.8465 -18.9743 0 0 0 0
 88 2 1 1 31.3931 -18.368 0 0 0 0
 89 1 1 1 21.0079 -11.1047 0 0 0 0
 90 1 1 1 20.9547 -11.1893 0 0 0 0
 91 1 1 1 20.9014 -11.274 0 0 0 0
 92 1 1 1 20.8482 -11.3586 0 0 0 0
 93 1 1 1 20.7949 -11.4432 0 0 0 0
 94 1 1 1 20.7417 -11.5279 0 0 0 0
 95 1 1 1 20.6885 -11.6125 0 0 0 0
 96 1 1 1 20.6352 -11.6972 0 0 0 0
 97 1 1 1 20.582 -11.7818 0 0 0 0
 98 1 1 1 20.5287 -11.8665 0 0 0 0
 99 1 1 1 20.4755 -11.9511 0 0 0 0
 100 1 1 1 20.3756 -11.9473 0 0 0 0
 101 1 1 1 20.2756 -11.9436 0 0 0 0
 102 1 1 1 20.1757 -11.9398 0 0 0 0
 103 1 1 1 20.0758 -11.936 0 0 0 0
 104 1 1 1 19.9759 -11.9322 0 0 0 0
 105 1 1 1 19.8759 -11.9284 0 0 0 0
 106 1 1 1 19.776 -11.9246 0 0 0 0
 107 1 1 1 19.6761 -11.9209 0 0 0 0
 108 1 1 1 19.5761 -11.9171 0 0 0 0
 109 1 1 1 19.4762 -11.9133 0 0 0 0
 110 1 1 1 19.5295 -11.8286 0 0 0 0
 111 1 1 1 19.5827 -11.744 0 0 0 0
 112 1 1 1 19.6359 -11.6593 0 0 0 0
 113 1 1 1 19.6892 -11.5747 0 0 0 0
 114 1 1 1 19.7424 -11.49 0 0 0 0
 115 1 1 1 19.7957 -11.4054 0 0 0 0
 116 1 1 1 19.8489 -11.3207 0 0 0 0
 117 1 1 1 19.9021 -11.2361 0 0 0 0
 118 1 1 1 19.9554 -11.1515 0 0 0 0
 119 1 1 1 20.0086 -11.0668 0 0 0 0
 120 1 1 1 20.1086 -11.0706 0 0 0 0
 121 1 1 1 20.2085 -11.0744 0 0 0 0
 122 1 1 1 20.3084 -11.0782 0 0 0 0
 123 1 1 1 20.4083 -11.0819 0 0 0 0
 124 1 1 1 20.5083 -11.0857 0 0 0 0
 125 1 1 1 20.6082 -11.0895 0 0 0 0
 126 1 1 1 20.7081 -11.0933 0 0 0 0
 127 1 1 1 20.8081 -11.0971 0 0 0 0
 128 1 1 1 20.908 -11.1009 0 0 0 0
 129 2 1 1 20.7119 -10.9934 0 0 0 0
 130 2 1 1 20.7199 -11.7504 0 0 0 0
 131 2 1 1 19.7722 -12.0246 0 0 0 0
 132 2 1 1 19.7643 -11.2675 0 0 0 0
 133 1 1 1 43.8921 -28.6722 0 0 0 0
 134 1 1 1 43.9293 -28.7651 0 0 0 0
 135 1 1 1 43.9665 -28.8579 0 0 0 0
 136 1 1 1 44.0037 -28.9507 0 0 0 0
 137 1 1 1 44.0409 -29.0435 0 0 0 0
 138 1 1 1 44.0781 -29.1364 0 0 0 0
 139 1 1 1 44.1153 -29.2292 0 0 0 0
 140 1 1 1 44.1525 -29.322 0 0 0 0
 141 1 1 1 44.1897 -29.4148 0 0 0 0
 142 1 1 1 44.2268 -29.5077 0 0 0 0
 143 1 1 1 44.264 -29.6005 0 0 0 0
 144 1 1 1 44.2022 -29.6791 0 0 0 0
 145 1 1 1 44.1405 -29.7577 0 0 0 0
 146 1 1 1 44.0787 -29.8364 0 0 0 0
 147 1 1 1 44.0169 -29.915 0 0 0 0
 148 1 1 1 43.9551 -29.9936 0 0 0 0
 149 1 1 1 43.8933 -30.0722 0 0 0 0
 150 1 1 1 43.8315 -30.1508 0 0 0 0
 151 1 1 1 43.7697 -30.2295 0 0 0 0
 152 1 1 1 43.7079 -30.3081 0 0 0 0
 153 1 1 1 43.6461 -30.3867 0 0 0 0
 154 1 1 1 43.6089 -30.2939 0 0 0 0
 155 1 1 1 43.5717 -30.2011 0 0 0 0
 156 1 1 1 43.5345 -30.1082 0 0 0 0
 157 1 1 1 43.4973 -30.0154 0 0 0 0
 158 1 1 1 43.4601 -29.9226 0 0 0 0
 159 1 1 1 43.423 -29.8298 0 0 0 0
 160 1 1 1 43.3858 -29.7369 0 0 0 0
 161 1 1 1 43.3486 -29.6441 0 0 0 0
 162 1 1 1 43.3114 -29.5513 0 0 0 0
 163 1 1 1 43.2742 -29.4585 0 0 0 0
 164 1 1 1 43.336 -29.3798 0 0 0 0
 165 1 1 1 43.3978 -29.3012 0 0 0 0
 166 1 1 1 43.4596 -29.2226 0 0 0 0
 167 1 1 1 43.5214 -29.144 0 0 0 0
 168 1 1 1 43.5831 -29.0653 0 0 0 0
 169 1 1 1 43.6449 -28.9867 0 0 0 0
 170 1 1 1 43.7067 -28.9081 0 0 0 0
 171 1 1 1 43.7685 -28.8295 0 0 0 0
 172 1 1 1 43.8303 -28.7508 0 0 0 0
 173 2 1 1 43.6281 -28.8463 0 0 0 0
 174 2 1 1 44.2453 -29.2848 0 0 0 0
 175 2 1 1 43.9101 -30.2126 0 0 0 0
 176 2 1 1 43.2929 -29.7741 0 0 0 0
 177 1 1 1 38.4636 10.4039 0 0 0 0
 178 1 1 1 38.5636 10.4059 0 0 0 0
 179 1 1 1 38.6636 10.408 0 0 0 0
 180 1 1 1 38.7635 10.41 0 0 0 0
 181 1 1 1 38.8635 10.412 0 0 0 0
 182 1 1 1 38.9635 10.4141 0 0 0 0
 183 1 1 1 39.0635 10.4161 0 0 0 0
 184 1 1 1 39.1635 10.4182 0 0 0 0
 185 1 1 1 39.2634 10.4202 0 0 0 0
 186 1 1 1 39.3634 10.4222 0 0 0 0
 187 1 1 1 39.4634 10.4243 0 0 0 0
 188 1 1 1 39.5151 10.3387 0 0 0 0
 189 1 1 1 39.5669 10.2531 0 0 0 0
 190 1 1 1 39.6187 10.1676 0 0 0 0
 191 1 1 1 39.6704 10.082 0 0 0 0
 192 1 1 1 39.7222 9.99644 0 0 0 0
 193 1 1 1 39.7739 9.91087 0 0 0 0
 194 1 1 1 39.8257 9.82531 0 0 0 0
 195 1 1 1 39.8774 9.73974 0 0 0 0
 196 1 1 1 39.9292 9.65417 0 0 0 0
 197 1 1 1 39.9809 9.56861 0 0 0 0
 198 1 1 1 39.881 9.56657 0 0 0 0
 199 1 1 1 39.781 9.56453 0 0 0 0
 200 1 1 1 39.681 9.5625 0 0 0 0
 201 1 1 1 39.581 9.56046 0 0 0 0
 202 1 1 1 39.481 9.55842 0 0 0 0
 203 1 1 1 39.3811 9.55638 0 0 0 0
 204 1 1 1 39.2811 9.55435 0 0 0 0
 205 1 1 1 39.1811 9.55231 0 0 0 0
 206 1 1 1 39.0811 9.55027 0 0 0 0
 207 1 1 1 38.9811 9.54824 0 0 0 0
 208 1 1 1 38.9294 9.6338 0 0 0 0
 209 1 1 1 38.8776 9.71937 0 0 0 0
 210 1 1 1 38.8259 9.80493 0 0 0 0
 211 1 1 1 38.7741 9.8905 0 0 0 0
 212 1 1 1 38.7224 9.97607 0 0 0 0
 213 1 1 1 38.6706 10.0616 0 0 0 0
 214 1 1 1 38.6189 10.1472 0 0 0 0
 215 1 1 1 38.5671 10.2328 0 0 0 0
 216 1 1 1 38.5154 10.3183 0 0 0 0
 217 2 1 1 38.5333 10.0954 0 0 0 0
 218 2 1 1 39.1614 10.5181 0 0 0 0
 219 2 1 1 39.9112 9.87706 0 0 0 0
 220 2 1 1 39.2831 9.45437 0 0 0 0
 221 1 1 1 57.399 42.0806 0 0 0 0
 222 1 1 1 57.3001 42.0958 0 0 0 0
 223 1 1 1 57.2013 42.1109 0 0 0 0
 224 1 1 1 57.1024 42.126 0 0 0 0
 225 1 1 1 57.0035 42.1411 0 0 0 0
 226 1 1 1 56.9047 42.1562 0 0 0 0
 227 1 1 1 56.8058 42.1713 0 0 0 0
 228 1 1 1 56.707 42.1864 0 0 0 0
 229 1 1 1 56.6081 42.2015 0 0 0 0
 230 1 1 1 56.5093 42.2166 0 0 0 0
 231 1 1 1 56.4104 42.2317 0 0 0 0
 232 1 1 1 56.3741 42.3249 0 0 0 0
 233 1 1 1 56.3377 42.418 0 0 0 0
 234 1 1 1 56.3014 42.5112 0 0 0 0
 235 1 1 1 56.265 42.6043 0 0 0 0
 236 1 1 1 56.2287 42.6975 0 0 0 0
 237 1 1 1 56.1924 42.7907 0 0 0 0
 238 1 1 1 56.156 42.8838 0 0 0 0
 239 1 1 1 56.1197 42.977 0 0 0 0
 240 1 1 1 56.0833 43.0701 0 0 0 0
 241 1 1 1 56.047 43.1633 0 0 0 0
 242 1 1 1 56.1458 43.1482 0 0 0 0
 243 1 1 1 56.2447 43.1331 0 0 0 0
 244 1 1 1 56.3435 43.118 0 0 0 0
 245 1 1 1 56.4424 43.1029 0 0 0 0
 246 1 1 1 56.5412 43.0878 0 0 0 0
 247 1 1 1 56.6401 43.0727 0 0 0 0
 248 1 1 1 56.7389 43.0576 0 0 0 0
 249 1 1 1 56.8378 43.0425 0 0 0 0
 250 1 1 1 56.9367 43.0274 0 0 0 0
 251 1 1 1 57.0355 43.0123 0 0 0 0
 252 1 1 1 57.0718 42.9191 0 0 0 0
 253 1 1 1 57.1082 42.8259 0 0 0 0
 254 1 1 1 57.1445 42.7328 0 0 0 0
 255 1 1 1 57.1809 42.6396 0 0 0 0
 256 1 1 1 57.2172 42.5465 0 0 0 0
 257 1 1 1 57.2536 42.4533 0 0 0 0
 258 1 1 1 57.2899 42.3601 0 0 0 0
 259 1 1 1 57.3263 42.267 0 0 0 0
 260 1 1 1 57.3626 42.1738 0 0 0 0
 261 2 1 1 57.3831 42.3965 0 0 0 0
 262 2 1 1 56.6919 42.0875 0 0 0 0
 263 2 1 1 56.0629 42.8475 0 0 0 0
 264 2 1 1 56.7541 43.1564 0 0 0 0
 265 1 1 1 -17.5966 65.9739 0 0 0 0
 266 1 1 1 -17.5032 65.9382 0 0 0 0
 267 1 1 1 -17.4098 65.9024 0 0 0 0
 268 1 1 1 -17.3164 65.8667 0 0 0 0
 269 1 1 1 -17.223 65.8309 0 0 0 0
 270 1 1 1 -17.1296 65.7952 0 0 0 0
 271 1 1 1 -17.0362 65.7594 0 0 0 0
 272 1 1 1 -16.9428 65.7237 0 0 0 0
 273 1 1 1 -16.8494 65.6879 0 0 0 0
 274 1 1 1 -16.7561 65.6522 0 0 0 0
 275 1 1 1 -16.6627 65.6164 0 0 0 0
 276 1 1 1 -16.6469 65.5177 0 0 0 0
 277 1 1 1 -16.6312 65.4189 0 0 0 0
 278 1 1 1 -16.6155 65.3201 0 0 0 0
 279 1 1 1 -16.5997 65.2214 0 0 0 0
 280 1 1 1 -16.584 65.1226 0 0 0 0
 281 1 1 1 -16.5683 65.0239 0 0 0 0
 282 1 1 1 -16.5525 64.9251 0 0 0 0
 283 1 1 1 -16.5368 64.8264 0 0 0 0
 284 1 1 1 -16.5211 64.7276 0 0 0 0
 285 1 1 1 -16.5053 64.6289 0 0 0 0
 286 1 1 1 -16.5987 64.6646 0 0 0 0
 287 1 1 1 -16.6921 64.7004 0 0 0 0
 288 1 1 1 -16.7855 64.7361 0 0 0 0
 289 1 1 1 -16.8789 64.7719 0 0 0 0
 290 1 1 1 -16.9723 64.8076 0 0 0 0
 291 1 1 1 -17.0657 64.8434 0 0 0 0
 292 1 1 1 -17.1591 64.8791 0 0 0 0
 293 1 1 1 -17.2525 64.9149 0 0 0 0
 294 1 1 1 -17.3459 64.9506 0 0 0 0
 295 1 1 1 -17.4392 64.9864 0 0 0 0
 296 1 1 1 -17.455 65.0851 0 0 0 0
 297 1 1 1 -17.4707 65.1839 0 0 0 0
 298 1 1 1 -17.4864 65.2827 0 0 0 0
 299 1 1 1 -17.5022 65.3814 0 0 0 0
 300 1 1 1 -17.5179 65.4802 0 0 0 0
 301 1 1 1 -17.5336 65.5789 0 0 0 0
 302 1 1 1 -17.5494 65.6777 0 0 0 0
 303 1 1 1 -17.5651 65.7764 0 0 0 0
 304 1 1 1 -17.5808 65.8752 0 0 0 0
 305 2 1 1 -17.6481 65.6619 0 0 0 0
 306 2 1 1 -16.9071 65.8171 0 0 0 0
 307 2 1 1 -16.4538 64.9409 0 0 0 0
 308 2 1 1 -17.1948 64.7857 0 0 0 0
 309 1 1 1 57.4545 13.0465 0 0 0 0
 310 1 1 1 57.4817 12.9503 0 0 0 0
 311 1 1 1 57.509 12.854 0 0 0 0
 312 1 1 1 57.5362 12.7578 0 0 0 0
 313 1 1 1 57.5634 12.6616 0 0 0 0
 314 1 1 1 57.5906 12.5654 0 0 0 0
 315 1 1 1 57.6178 12.4691 0 0 0 0
 316 1 1 1 57.6451 12.3729 0 0 0 0
 317 1 1 1 57.6723 12.2767 0 0 0 0
 318 1 1 1 57.6995 12.1805 0 0 0 0
 319 1 1 1 57.7267 12.0843 0 0 0 0
 320 1 1 1 57.657 12.0126 0 0 0 0
 321 1 1 1 57.5873 11.9409 0 0 0 0
 322 1 1 1 57.5176 11.8692 0 0 0 0
 323 1 1 1 57.4478 11.7975 0 0 0 0
 324 1 1 1 57.3781 11.7258 0 0 0 0
 325 1 1 1 57.3084 11.6541 0 0 0 0
 326 1 1 1 57.2387 11.5825 0 0 0 0
 327 1 1 1 57.1689 11.5108 0 0 0 0
 328 1 1 1 57.0992 11.4391 0 0 0 0
 329 1 1 1 57.0295 11.3674 0 0 0 0
 330 1 1 1 57.0023 11.4636 0 0 0 0
 331 1 1 1 56.9751 11.5598 0 0 0 0
 332 1 1 1 56.9478 11.6561 0 0 0 0
 333 1 1 1 56.9206 11.7523 0 0 0 0
 334 1 1 1 56.8934 11.8485 0 0 0 0
 335 1 1 1 56.8662 11.9447 0 0 0 0
 336 1 1 1 56.839 12.041 0 0 0 0
 337 1 1 1 56.8117 12.1372 0 0 0 0
 338 1 1 1 56.7845 12.2334 0 0 0 0
 339 1 1 1 56.7573 12.3296 0 0 0 0
 340 1 1 1 56.827 12.4013 0 0 0 0
 341 1 1 1 56.8967 12.473 0 0 0 0
 342 1 1 1 56.9665 12.5447 0 0 0 0
 343 1 1 1 57.0362 12.6164 0 0 0 0
 344 1 1 1 57.1059 12.6881 0 0 0 0
 345 1 1 1 57.1756 12.7597 0 0 0 0
 346 1 1 1 57.2453 12.8314 0 0 0 0
 347 1 1 1 57.3151 12.9031 0 0 0 0
 348 1 1 1 57.3848 12.9748 0 0 0 0
 349 2 1 1 57.1737 12.9012 0 0 0 0
 350 2 1 1 57.7413 12.4001 0 0 0 0
 351 2 1 1 57.3104 11.5127 0 0 0 0
 352 2 1 1 56.7427 12.0137 0 0 0 0
 353 1 1 1 48.2676 10.4722 0 0 0 0
 354 1 1 1 48.2954 10.3761 0 0 0 0
 355 1 1 1 48.3231 10.28 0 0 0 0
 356 1 1 1 48.3508 10.1839 0 0 0 0
 357 1 1 1 48.3786 10.0879 0 0 0 0
 358 1 1 1 48.4063 9.99178 0 0 0 0
 359 1 1 1 48.434 9.89571 0 0 0 0
 360 1 1 1 48.4618 9.79963 0 0 0 0
 361 1 1 1 48.4895 9.70355 0 0 0 0
 362 1 1 1 48.5173 9.60748 0 0 0 0
 363 1 1 1 48.545 9.5114 0 0 0 0
 364 1 1 1 48.4757 9.43934 0 0 0 0
 365 1 1 1 48.4063 9.36728 0 0 0 0
 366 1 1 1 48.337 9.29522 0 0 0 0
 367 1 1 1 48.2676 9.22316 0 0 0 0
 368 1 1 1 48.1983 9.1511 0 0 0 0
 369 1 1 1 48.129 9.07905 0 0 0 0
 370 1 1 1 48.0596 9.00699 0 0 0 0
 371 1 1 1 47.9903 8.93493 0 0 0 0
 372 1 1 1 47.921 8.86287 0 0 0 0
 373 1 1 1 47.8516 8.79081 0 0 0 0
 374 1 1 1 47.8239 8.88688 0 0 0 0
 375 1 1 1 47.7962 8.98296 0 0 0 0
 376 1 1 1 47.7684 9.07904 0 0 0 0
 377 1 1 1 47.7407 9.17511 0 0 0 0
 378 1 1 1 47.7129 9.27119 0 0 0 0
 379 1 1 1 47.6852 9.36727 0 0 0 0
 380 1 1 1 47.6575 9.46334 0 0 0 0
 381 1 1 1 47.6297 9.55942 0 0 0 0
 382 1 1 1 47.602 9.6555 0 0 0 0
 383 1 1 1 47.5743 9.75157 0 0 0 0
 384 1 1 1 47.6436 9.82363 0 0 0 0
 385 1 1 1 47.7129 9.89569 0 0 0 0
 386 1 1 1 47.7823 9.96775 0 0 0 0
 387 1 1 1 47.8516 10.0398 0 0 0 0
 388 1 1 1 47.9209 10.1119 0 0 0 0
 389 1 1 1 47.9903 10.1839 0 0 0 0
 390 1 1 1 48.0596 10.256 0 0 0 0
 391 1 1 1 48.1289 10.328 0 0 0 0
 392 1 1 1 48.1983 10.4001 0 0 0 0
 393 2 1 1 47.9876 10.3253 0 0 0 0
 394 2 1 1 48.5579 9.82737 0 0 0 0
 395 2 1 1 48.1317 8.93765 0 0 0 0
 396 2 1 1 47.5614 9.43561 0 0 0 0
 397 1 1 1 17.7679 26.4221 0 0 0 0
 398 1 1 1 17.7926 26.3252 0 0 0 0
 399 1 1 1 17.8173 26.2283 0 0 0 0
 400 1 1 1 17.842 26.1314 0 0 0 0
 401 1 1 1 17.8667 26.0345 0 0 0 0
 402 1 1 1 17.8914 25.9376 0 0 0 0
 403 1 1 1 17.9161 25.8407 0 0 0 0
 404 1 1 1 17.9408 25.7438 0 0 0 0
 405 1 1 1 17.9655 25.6469 0 0 0 0
 406 1 1 1 17.9902 25.55 0 0 0 0
 407 1 1 1 18.0149 25.4531 0 0 0 0
 408 1 1 1 17.9433 25.3832 0 0 0 0
 409 1 1 1 17.8718 25.3134 0 0 0 0
 410 1 1 1 17.8002 25.2436 0 0 0 0
 411 1 1 1 17.7286 25.1737 0 0 0 0
 412 1 1 1 17.6571 25.1039 0 0 0 0
 413 1 1 1 17.5855 25.034 0 0 0 0
 414 1 1 1 17.5139 24.9642 0 0 0 0
 415 1 1 1 17.4424 24.8943 0 0 0 0
 416 1 1 1 17.3708 24.8245 0 0 0 0
 417 1 1 1 17.2992 24.7547 0 0 0 0
 418 1 1 1 17.2745 24.8516 0 0 0 0
 419 1 1 1 17.2498 24.9485 0 0 0 0
 420 1 1 1 17.2251 25.0454 0 0 0 0
 421 1 1 1 17.2004 25.1423 0 0 0 0
 422 1 1 1 17.1757 25.2392 0 0 0 0
 423 1 1 1 17.151 25.3361 0 0 0 0
 424 1 1 1 17.1263 25.433 0 0 0 0
 425 1 1 1 17.1016 25.5299 0 0 0 0
 426 1 1 1 17.0769 25.6268 0 0 0 0
 427 1 1 1 17.0522 25.7237 0 0 0 0
 428 1 1 1 17.1238 25.7935 0 0 0 0
 429 1 1 1 17.1953 25.8634 0 0 0 0
 430 1 1 1 17.2669 25.9332 0 0 0 0
 431 1 1 1 17.3385 26.003 0 0 0 0
 432 1 1 1 17.4101 26.0729 0 0 0 0
 433 1 1 1 17.4816 26.1427 0 0 0 0
 434 1 1 1 17.5532 26.2126 0 0 0 0
 435 1 1 1 17.6248 26.2824 0 0 0 0
 436 1 1 1 17.6963 26.3523 0 0 0 0
 437 2 1 1 17.4833 26.2841 0 0 0 0
 438 2 1 1 18.0377 25.7685 0 0 0 0
 439 2 1 1 17.5838 24.8926 0 0 0 0
 440 2 1 1 17.0294 25.4083 0 0 0 0
 441 1 1 1 35.178 15.0694 0 0 0 0
 442 1 1 1 35.1008 15.133 0 0 0 0
 443 1 1 1 35.0235 15.1965 0 0 0 0
 444 1 1 1 34.9463 15.2601 0 0 0 0
 445 1 1 1 34.8691 15.3236 0 0 0 0
 446 1 1 1 34.7919 15.3872 0 0 0 0
 447 1 1 1 34.7147 15.4507 0 0 0 0
 448 1 1 1 34.6375 15.5143 0 0 0 0
 449 1 1 1 34.5603 15.5778 0 0 0 0
 450 1 1 1 34.4831 15.6414 0 0 0 0
 451 1 1 1 34.4058 15.7049 0 0 0 0
 452 1 1 1 34.4223 15.8036 0 0 0 0
 453 1 1 1 34.4387 15.9022 0 0 0 0
 454 1 1 1 34.4551 16.0008 0 0 0 0
 455 1 1 1 34.4716 16.0995 0 0 0 0
 456 1 1 1 34.488 16.1981 0 0 0 0
 457 1 1 1 34.5044 16.2968 0 0 0 0
 458 1 1 1 34.5208 16.3954 0 0 0 0
 459 1 1 1 34.5373 16.494 0 0 0 0
 460 1 1 1 34.5537 16.5927 0 0 0 0
 461 1 1 1 34.5701 16.6913 0 0 0 0
 462 1 1 1 34.6473 16.6278 0 0 0 0
 463 1 1 1 34.7245 16.5642 0 0 0 0
 464 1 1 1 34.8018 16.5007 0 0 0 0
 465 1 1 1 34.879 16.4371 0 0 0 0
 466 1 1 1 34.9562 16.3736 0 0 0 0
 467 1 1 1 35.0334 16.3101 0 0 0 0
 468 1 1 1 35.1106 16.2465 0 0 0 0
 469 1 1 1 35.1878 16.183 0 0 0 0
 470 1 1 1 35.265 16.1194 0 0 0 0
 471 1 1 1 35.3422 16.0559 0 0 0 0
 472 1 1 1 35.3258 15.9572 0 0 0 0
 473 1 1 1 35.3094 15.8586 0 0 0 0
 474 1 1 1 35.293 15.7599 0 0 0 0
 475 1 1 1 35.2765 15.6613 0 0 0 0
 476 1 1 1 35.2601 15.5627 0 0 0 0
 477 1 1 1 35.2437 15.464 0 0 0 0
 478 1 1 1 35.2273 15.3654 0 0 0 0
 479 1 1 1 35.2108 15.2667 0 0 0 0
 480 1 1 1 35.1944 15.1681 0 0 0 0
 481 2 1 1 35.3259 15.3489 0 0 0 0
 482 2 1 1 34.5739 15.4371 0 0 0 0
 483 2 1 1 34.4222 16.4118 0 0 0 0
 484 2 1 1 35.1742 16.3237 0 0 0 0
 485 1 1 1 -30.2145 -41.588 0 0 0 0
 486 1 1 1 -30.3117 -41.5645 0 0 0 0
 487 1 1 1 -30.4089 -41.541 0 0 0 0
 488 1 1 1 -30.5061 -41.5175 0 0 0 0
 489 1 1 1 -30.6033 -41.494 0 0 0 0
 490 1 1 1 -30.7005 -41.4705 0 0 0 0
 491 1 1 1 -30.7977 -41.447 0 0 0 0
 492 1 1 1 -30.8949 -41.4235 0 0 0 0
 493 1 1 1 -30.9921 -41.4 0 0 0 0
 494 1 1 1 -31.0893 -41.3765 0 0 0 0
 495 1 1 1 -31.1865 -41.353 0 0 0 0
 496 1 1 1 -31.2147 -41.257 0 0 0 0
 497 1 1 1 -31.243 -41.1611 0 0 0 0
 498 1 1 1 -31.2712 -41.0652 0 0 0 0
 499 1 1 1 -31.2995 -40.9692 0 0 0 0
 500 1 1 1 -31.3277 -40.8733 0 0 0 0
 501 1 1 1 -31.3559 -40.7774 0 0 0 0
 502 1 1 1 -31.3842 -40.6815 0 0 0 0
 503 1 1 1 -31.4124 -40.5855 0 0 0 0
 504 1 1 1 -31.4407 -40.4896 0 0 0 0
 505 1 1 1 -31.4689 -40.3937 0 0 0 0
 506 1 1 1 -31.3717 -40.4172 0 0 0 0
 507 1 1 1 -31.2745 -40.4407 0 0 0 0
 508 1 1 1 -31.1773 -40.4642 0 0 0 0
 509 1 1 1 -31.0801 -40.4877 0 0 0 0
 510 1 1 1 -30.9829 -40.5112 0 0 0 0
 511 1 1 1 -30.8857 -40.5347 0 0 0 0
 512 1 1 1 -30.7885 -40.5582 0 0 0 0
 513 1 1 1 -30.6913 -40.5817 0 0 0 0
 514 1 1 1 -30.5941 -40.6052 0 0 0 0
 515 1 1 1 -30.4969 -40.6288 0 0 0 0
 516 1 1 1 -30.4687 -40.7247 0 0 0 0
 517 1 1 1 -30.4404 -40.8206 0 0 0 0
 518 1 1 1 -30.4122 -40.9165 0 0 0 0
 519 1 1 1 -30.384 -41.0125 0 0 0 0
 520 1 1 1 -30.3557 -41.1084 0 0 0 0
 521 1 1 1 -30.3275 -41.2043 0 0 0 0
 522 1 1 1 -30.2992 -41.3003 0 0 0 0
 523 1 1 1 -30.271 -41.3962 0 0 0 0
 524 1 1 1 -30.2428 -41.4921 0 0 0 0
 525 2 1 1 -30.2033 -41.272 0 0 0 0
 526 2 1 1 -30.9184 -41.5207 0 0 0 0
 527 2 1 1 -31.4801 -40.7097 0 0 0 0
 528 2 1 1 -30.765 -40.461 0 0 0 0
 529 1 1 1 59.5197 -40.5334 0 0 0 0
 530 1 1 1 59.4687 -40.6194 0 0 0 0
 531 1 1 1 59.4177 -40.7054 0 0 0 0
 532 1 1 1 59.3667 -40.7914 0 0 0 0
 533 1 1 1 59.3157 -40.8774 0 0 0 0
 534 1 1 1 59.2647 -40.9634 0 0 0 0
 535 1 1 1 59.2137 -41.0495 0 0 0 0
 536 1 1 1 59.1627 -41.1355 0 0 0 0
 537 1 1 1 59.1117 -41.2215 0 0 0 0
 538 1 1 1 59.0607 -41.3075 0 0 0 0
 539 1 1 1 59.0097 -41.3935 0 0 0 0
 540 1 1 1 58.9097 -41.3924 0 0 0 0
 541 1 1 1 58.8097 -41.3912 0 0 0 0
 542 1 1 1 58.7097 -41.39 0 0 0 0
 543 1 1 1 58.6097 -41.3889 0 0 0 0
 544 1 1 1 58.5097 -41.3877 0 0 0 0
 545 1 1 1 58.4097 -41.3865 0 0 0 0
 546 1 1 1 58.3097 -41.3854 0 0 0 0
 547 1 1 1 58.2097 -41.3842 0 0 0 0
 548 1 1 1 58.1097 -41.3831 0 0 0 0
 549 1 1 1 58.0097 -41.3819 0 0 0 0
 550 1 1 1 58.0607 -41.2959 0 0 0 0
 551 1 1 1 58.1117 -41.2099 0 0 0 0
 552 1 1 1 58.1627 -41.1238 0 0 0 0
 553 1 1 1 58.2138 -41.0378 0 0 0 0
 554 1 1 1 58.2648 -40.9518 0 0 0 0
 555 1 1 1 58.3158 -40.8658 0 0 0 0
 556 1 1 1 58.3668 -40.7798 0 0 0 0
 557 1 1 1 58.4178 -40.6938 0 0 0 0
 558 1 1 1 58.4688 -40.6078 0 0 0 0
 559 1 1 1 58.5198 -40.5217 0 0 0 0
 560 1 1 1 58.6198 -40.5229 0 0 0 0
 561 1 1 1 58.7198 -40.5241 0 0 0 0
 562 1 1 1 58.8198 -40.5252 0 0 0 0
 563 1 1 1 58.9197 -40.5264 0 0 0 0
 564 1 1 1 59.0197 -40.5276 0 0 0 0
 565 1 1 1 59.1197 -40.5287 0 0 0 0
 566 1 1 1 59.2197 -40.5299 0 0 0 0
 567 1 1 1 59.3197 -40.531 0 0 0 0
 568 1 1 1 59.4197 -40.5322 0 0 0 0
 569 2 1 1 59.2209 -40.4299 0 0 0 0
 570 2 1 1 59.2487 -41.1865 0 0 0 0
 571 2 1 1 58.3086 -41.4854 0 0 0 0
 572 2 1 1 58.2807 -40.7288 0 0 0 0
 573 1 1 1 21.5455 52.7059 0 0 0 0
 574 1 1 1 21.6235 52.6434 0 0 0 0
 575 1 1 1 21.7016 52.5809 0 0 0 0
 576 1 1 1 21.7796 52.5183 0 0 0 0
 577 1 1 1 21.8577 52.4558 0 0 0 0
 578 1 1 1 21.9357 52.3933 0 0 0 0
 579 1 1 1 22.0138 52.3308 0 0 0 0
 580 1 1 1 22.0918 52.2683 0 0 0 0
 581 1 1 1 22.1699 52.2058 0 0 0 0
 582 1 1 1 22.2479 52.1433 0 0 0 0
 583 1 1 1 22.326 52.0808 0 0 0 0
 584 1 1 1 22.3109 51.9819 0 0 0 0
 585 1 1 1 22.2958 51.8831 0 0 0 0
 586 1 1 1 22.2807 51.7842 0 0 0 0
 587 1 1 1 22.2655 51.6853 0 0 0 0
 588 1 1 1 22.2504 51.5865 0 0 0 0
 589 1 1 1 22.2353 51.4876 0 0 0 0
 590 1 1 1 22.2202 51.3888 0 0 0 0
 591 1 1 1 22.2051 51.2899 0 0 0 0
 592 1 1 1 22.19 51.1911 0 0 0 0
 593 1 1 1 22.1749 51.0922 0 0 0 0
 594 1 1 1 22.0968 51.1548 0 0 0 0
 595 1 1 1 22.0188 51.2173 0 0 0 0
 596 1 1 1 21.9407 51.2798 0 0 0 0
 597 1 1 1 21.8627 51.3423 0 0 0 0
 598 1 1 1 21.7846 51.4048 0 0 0 0
 599 1 1 1 21.7066 51.4673 0 0 0 0
 600 1 1 1 21.6285 51.5298 0 0 0 0
 601 1 1 1 21.5505 51.5923 0 0 0 0
 602 1 1 1 21.4724 51.6548 0 0 0 0
 603 1 1 1 21.3944 51.7174 0 0 0 0
 604 1 1 1 21.4095 51.8162 0 0 0 0
 605 1 1 1 21.4246 51.9151 0 0 0 0
 606 1 1 1 21.4397 52.0139 0 0 0 0
 607 1 1 1 21.4548 52.1128 0 0 0 0
 608 1 1 1 21.4699 52.2116 0 0 0 0
 609 1 1 1 21.485 52.3105 0 0 0 0
 610 1 1 1 21.5001 52.4093 0 0 0 0
 611 1 1 1 21.5152 52.5082 0 0 0 0
 612 1 1 1 21.5304 52.607 0 0 0 0
 613 2 1 1 21.4013 52.4244 0 0 0 0
 614 2 1 1 22.1543 52.3463 0 0 0 0
 615 2 1 1 22.3191 51.3737 0 0 0 0
 616 2 1 1 21.566 51.4518 0 0 0 0
 617 1 1 1 20.7677 -51.6854 0 0 0 0
 618 1 1 1 20.8224 -51.6016 0 0 0 0
 619 1 1 1 20.877 -51.5178 0 0 0 0
 620 1 1 1 20.9316 -51.4341 0 0 0 0
 621 1 1 1 20.9862 -51.3503 0 0 0 0
 622 1 1 1 21.0408 -51.2665 0 0 0 0
 623 1 1 1 21.0954 -51.1828 0 0 0 0
 624 1 1 1 21.1501 -51.099 0 0 0 0
 625 1 1 1 21.2047 -51.0152 0 0 0 0
 626 1 1 1 21.2593 -50.9315 0 0 0 0
 627 1 1 1 21.3139 -50.8477 0 0 0 0
 628 1 1 1 21.4138 -50.8531 0 0 0 0
 629 1 1 1 21.5136 -50.8585 0 0 0 0
 630 1 1 1 21.6135 -50.8639 0 0 0 0
 631 1 1 1 21.7133 -50.8694 0 0 0 0
 632 1 1 1 21.8132 -50.8748 0 0 0 0
 633 1 1 1 21.913 -50.8802 0 0 0 0
 634 1 1 1 22.0129 -50.8856 0 0 0 0
 635 1 1 1 22.1127 -50.891 0 0 0 0
 636 1 1 1 22.2126 -50.8964 0 0 0 0
 637 1 1 1 22.3124 -50.9019 0 0 0 0
 638 1 1 1 22.2578 -50.9856 0 0 0 0
 639 1 1 1 22.2032 -51.0694 0 0 0 0
 640 1 1 1 22.1486 -51.1532 0 0 0 0
 641 1 1 1 22.094 -51.2369 0 0 0 0
 642 1 1 1 22.0394 -51.3207 0 0 0 0
 643 1 1 1 21.9847 -51.4045 0 0 0 0
 644 1 1 1 21.9301 -51.4882 0 0 0 0
 645 1 1 1 21.8755 -51.572 0 0 0 0
 646 1 1 1 21.8209 -51.6558 0 0 0 0
 647 1 1 1 21.7663 -51.7395 0 0 0 0
 648 1 1 1 21.6664 -51.7341 0 0 0 0
 649 1 1 1 21.5666 -51.7287 0 0 0 0
 650 1 1 1 21.4667 -51.7233 0 0 0 0
 651 1 1 1 21.3669 -51.7179 0 0 0 0
 652 1 1 1 21.267 -51.7125 0 0 0 0
 653 1 1 1 21.1672 -51.707 0 0 0 0
 654 1 1 1 21.0673 -51.7016 0 0 0 0
 655 1 1 1 20.9674 -51.6962 0 0 0 0
 656 1 1 1 20.8676 -51.6908 0 0 0 0
 657 2 1 1 21.0619 -51.8015 0 0 0 0
 658 2 1 1 21.0663 -51.0444 0 0 0 0
 659 2 1 1 22.0183 -50.7858 0 0 0 0
 660 2 1 1 22.0139 -51.5428 0 0 0 0
 661 1 1 1 52.5943 7.78664 0 0 0 0
 662 1 1 1 52.6824 7.83399 0 0 0 0
 663 1 1 1 52.7705 7.88134 0 0 0 0
 664 1 1 1 52.8586 7.9287 0 0 0 0
 665 1 1 1 52.9466 7.97605 0 0 0 0
 666 1 1 1 53.0347 8.0234 0 0 0 0
 667 1 1 1 53.1228 8.07075 0 0 0 0
 668 1 1 1 53.2109 8.11811 0 0 0 0
 669 1 1 1 53.299 8.16546 0 0 0 0
 670 1 1 1 53.387 8.21281 0 0 0 0
 671 1 1 1 53.4751 8.26016 0 0 0 0
 672 1 1 1 53.5602 8.20756 0 0 0 0
 673 1 1 1 53.6452 8.15496 0 0 0 0
 674 1 1 1 53.7303 8.10236 0 0 0 0
 675 1 1 1 53.8153 8.04976 0 0 0 0
 676 1 1 1 53.9004 7.99716 0 0 0 0
 677 1 1 1 53.9854 7.94456 0 0 0 0
 678 1 1 1 54.0704 7.89195 0 0 0 0
 679 1 1 1 54.1555 7.83935 0 0 0 0
 680 1 1 1 54.2405 7.78675 0 0 0 0
 681 1 1 1 54.3256 7.73415 0 0 0 0
 682 1 1 1 54.2375 7.6868 0 0 0 0
 683 1 1 1 54.1494 7.63944 0 0 0 0
 684 1 1 1 54.0614 7.59209 0 0 0 0
 685 1 1 1 53.9733 7.54474 0 0 0 0
 686 1 1 1 53.8852 7.49739 0 0 0 0
 687 1 1 1 53.7971 7.45003 0 0 0 0
 688 1 1 1 53.709 7.40268 0 0 0 0
 689 1 1 1 53.621 7.35533 0 0 0 0
 690 1 1 1 53.5329 7.30798 0 0 0 0
 691 1 1 1 53.4448 7.26062 0 0 0 0
 692 1 1 1 53.3598 7.31323 0 0 0 0
 693 1 1 1 53.2747 7.36583 0 0 0 0
 694 1 1 1 53.1897 7.41843 0 0 0 0
 695 1 1 1 53.1046 7.47103 0 0 0 0
 696 1 1 1 53.0196 7.52363 0 0 0 0
 697 1 1 1 52.9345 7.57623 0 0 0 0
 698 1 1 1 52.8495 7.62883 0 0 0 0
 699 1 1 1 52.7644 7.68144 0 0 0 0
 700 1 1 1 52.6794 7.73404 0 0 0 0
 701 2 1 1 52.7969 7.54379 0 0 0 0
 702 2 1 1 53.1635 8.20618 0 0 0 0
 703 2 1 1 54.123 7.977 0 0 0 0
 704 2 1 1 53.7564 7.3146 0 0 0 0
 705 1 1 1 42.9036 34.3183 0 0 0 0
 706 1 1 1 43.0014 34.2975 0 0 0 0
 707 1 1 1 43.0993 34.2767 0 0 0 0
 708 1 1 1 43.1971 34.2559 0 0 0 0
 709 1 1 1 43.2949 34.2351 0 0 0 0
 710 1 1 1 43.3927 34.2144 0 0 0 0
 711 1 1 1 43.4905 34.1936 0 0 0 0
 712 1 1 1 43.5883 34.1728 0 0 0 0
 713 1 1 1 43.6861 34.152 0 0 0 0
 714 1 1 1 43.784 34.1312 0 0 0 0
 715 1 1 1 43.8818 34.1104 0 0 0 0
 716 1 1 1 43.9127 34.0153 0 0 0 0
 717 1 1 1 43.9436 33.9202 0 0 0 0
 718 1 1 1 43.9745 33.825 0 0 0 0
 719 1 1 1 44.0054 33.7299 0 0 0 0
 720 1 1 1 44.0363 33.6348 0 0 0 0
 721 1 1 1 44.0671 33.5397 0 0 0 0
 722 1 1 1 44.098 33.4446 0 0 0 0
 723 1 1 1 44.1289 33.3495 0 0 0 0
 724 1 1 1 44.1598 33.2544 0 0 0 0
 725 1 1 1 44.1907 33.1593 0 0 0 0
 726 1 1 1 44.0929 33.1801 0 0 0 0
 727 1 1 1 43.9951 33.2009 0 0 0 0
 728 1 1 1 43.8973 33.2217 0 0 0 0
 729 1 1 1 43.7995 33.2425 0 0 0 0
 730 1 1 1 43.7017 33.2633 0 0 0 0
 731 1 1 1 43.6039 33.2841 0 0 0 0
 732 1 1 1 43.506 33.3049 0 0 0 0
 733 1 1 1 43.4082 33.3257 0 0 0 0
 734 1 1 1 43.3104 33.3465 0 0 0 0
 735 1 1 1 43.2126 33.3673 0 0 0 0
 736 1 1 1 43.1817 33.4624 0 0 0 0
 737 1 1 1 43.1508 33.5575 0 0 0 0
 738 1 1 1 43.1199 33.6526 0 0 0 0
 739 1 1 1 43.089 33.7477 0 0 0 0
 740 1 1 1 43.0581 33.8428 0 0 0 0
 741 1 1 1 43.0272 33.9379 0 0 0 0
 742 1 1 1 42.9963 34.033 0 0 0 0
 743 1 1 1 42.9654 34.1281 0 0 0 0
 744 1 1 1 42.9345 34.2232 0 0 0 0
 745 2 1 1 42.9012 34.0021 0 0 0 0
 746 2 1 1 43.6091 34.2706 0 0 0 0
 747 2 1 1 44.1932 33.4755 0 0 0 0
 748 2 1 1 43.4852 33.2071 0 0 0 0
 749 1 1 1 -71.6221 70.4956 0 0 0 0
 750 1 1 1 -71.5937 70.5915 0 0 0 0
 751 1 1 1 -71.5654 70.6874 0 0 0 0
 752 1 1 1 -71.537 70.7833 0 0 0 0
 753 1 1 1 -71.5087 70.8792 0 0 0 0
 754 1 1 1 -71.4803 70.9751 0 0 0 0
 755 1 1 1 -71.452 71.071 0 0 0 0
 756 1 1 1 -71.4237 71.1669 0 0 0 0
 757 1 1 1 -71.3953 71.2628 0 0 0 0
 758 1 1 1 -71.367 71.3587 0 0 0 0
 759 1 1 1 -71.3386 71.4546 0 0 0 0
 760 1 1 1 -71.2414 71.478 0 0 0 0
 761 1 1 1 -71.1442 71.5014 0 0 0 0
 762 1 1 1 -71.047 71.5248 0 0 0 0
 763 1 1 1 -70.9497 71.5482 0 0 0 0
 764 1 1 1 -70.8525 71.5716 0 0 0 0
 765 1 1 1 -70.7553 71.595 0 0 0 0
 766 1 1 1 -70.6581 71.6184 0 0 0 0
 767 1 1 1 -70.5608 71.6418 0 0 0 0
 768 1 1 1 -70.4636 71.6652 0 0 0 0
 769 1 1 1 -70.3664 71.6886 0 0 0 0
 770 1 1 1 -70.3947 71.5927 0 0 0 0
 771 1 1 1 -70.4231 71.4968 0 0 0 0
 772 1 1 1 -70.4514 71.4009 0 0 0 0
 773 1 1 1 -70.4798 71.305 0 0 0 0
 774 1 1 1 -70.5081 71.2091 0 0 0 0
 775 1 1 1 -70.5365 71.1132 0 0 0 0
 776 1 1 1 -70.5648 71.0173 0 0 0 0
 777 1 1 1 -70.5931 70.9215 0 0 0 0
 778 1 1 1 -70.6215 70.8256 0 0 0 0
 779 1 1 1 -70.6498 70.7297 0 0 0 0
 780 1 1 1 -70.7471 70.7063 0 0 0 0
 781 1 1 1 -70.8443 70.6828 0 0 0 0
 782 1 1 1 -70.9415 70.6594 0 0 0 0
 783 1 1 1 -71.0387 70.636 0 0 0 0
 784 1 1 1 -71.136 70.6126 0 0 0 0
 785 1 1 1 -71.2332 70.5892 0 0 0 0
 786 1 1 1 -71.3304 70.5658 0 0 0 0
 787 1 1 1 -71.4276 70.5424 0 0 0 0
 788 1 1 1 -71.5248 70.519 0 0 0 0
 789 2 1 1 -71.307 70.4686 0 0 0 0
 790 2 1 1 -71.5196 71.1953 0 0 0 0
 791 2 1 1 -70.6815 71.7157 0 0 0 0
 792 2 1 1 -70.4689 70.989 0 0 0 0
 793 1 1 1 64.9854 -58.3886 0 0 0 0
 794 1 1 1 64.8871 -58.407 0 0 0 0
 795 1 1 1 64.7888 -58.4254 0 0 0 0
 796 1 1 1 64.6905 -58.4437 0 0 0 0
 797 1 1 1 64.5922 -58.4621 0 0 0 0
 798 1 1 1 64.4939 -58.4805 0 0 0 0
 799 1 1 1 64.3956 -58.4989 0 0 0 0
 800 1 1 1 64.2973 -58.5173 0 0 0 0
 801 1 1 1 64.199 -58.5357 0 0 0 0
 802 1 1 1 64.1008 -58.5541 0 0 0 0
 803 1 1 1 64.0025 -58.5725 0 0 0 0
 804 1 1 1 63.9374 -58.4966 0 0 0 0
 805 1 1 1 63.8723 -58.4206 0 0 0 0
 806 1 1 1 63.8072 -58.3447 0 0 0 0
 807 1 1 1 63.7422 -58.2688 0 0 0 0
 808 1 1 1 63.6771 -58.1929 0 0 0 0
 809 1 1 1 63.612 -58.1169 0 0 0 0
 810 1 1 1 63.5469 -58.041 0 0 0 0
 811 1 1 1 63.4819 -57.9651 0 0 0 0
 812 1 1 1 63.4168 -57.8891 0 0 0 0
 813 1 1 1 63.3517 -57.8132 0 0 0 0
 814 1 1 1 63.45 -57.7948 0 0 0 0
 815 1 1 1 63.5483 -57.7764 0 0 0 0
 816 1 1 1 63.6466 -57.758 0 0 0 0
 817 1 1 1 63.7449 -57.7396 0 0 0 0
 818 1 1 1 63.8432 -57.7212 0 0 0 0
 819 1 1 1 63.9415 -57.7029 0 0 0 0
 820 1 1 1 64.0398 -57.6845 0 0 0 0
 821 1 1 1 64.1381 -57.6661 0 0 0 0
 822 1 1 1 64.2363 -57.6477 0 0 0 0
 823 1 1 1 64.3346 -57.6293 0 0 0 0
 824 1 1 1 64.3997 -57.7052 0 0 0 0
 825 1 1 1 64.4648 -57.7811 0 0 0 0
 826 1 1 1 64.5299 -57.8571 0 0 0 0
 827 1 1 1 64.5949 -57.933 0 0 0 0
 828 1 1 1 64.66 -58.0089 0 0 0 0
 829 1 1 1 64.7251 -58.0849 0 0 0 0
 830 1 1 1 64.7902 -58.1608 0 0 0 0
 831 1 1 1 64.8552 -58.2367 0 0 0 0
 832 1 1 1 64.9203 -58.3126 0 0 0 0
 833 2 1 1 64.8661 -58.0957 0 0 0 0
 834 2 1 1 64.3157 -58.6156 0 0 0 0
 835 2 1 1 63.471 -58.1061 0 0 0 0
 836 2 1 1 64.0214 -57.5862 0 0 0 0
 837 1 1 1 4.24062 46.8137 0 0 0 0
 838 1 1 1 4.18002 46.7341 0 0 0 0
 839 1 1 1 4.11942 46.6546 0 0 0 0
 840 1 1 1 4.05882 46.575 0 0 0 0
 841 1 1 1 3.99822 46.4955 0 0 0 0
 842 1 1 1 3.93762 46.416 0 0 0 0
 843 1 1 1 3.87702 46.3364 0 0 0 0
 844 1 1 1 3.81641 46.2569 0 0 0 0
 845 1 1 1 3.75581 46.1773 0 0 0 0
 846 1 1 1 3.69521 46.0978 0 0 0 0