# starting configuration template for LAMMPS available at
# https://github.com/OljaOctagon/Introduction-to-Computational-Physics
# File format according to https://docs.lammps.org/2001/data_format.html

3000 atoms
2500 bonds
2500 angles

2 atom types
1 bond types
1 angle types
      
-16   16     xlo xhi
-16   16     ylo yhi
-0.5   0.5     zlo zhi
         
Masses
#  atomtype, mass
1       2.0  
2       0.5  


Atoms 
#  atom-ID       mol-ID       atom-type       x       y      z
1         1         1       1        9.099448087633004       10.9477633340021       0
2         1         2       1        8.805555461486767       10.543254836814627       0
3         1         2       1        9.39334071377924       10.543254836814627       0
4         1         2       1        9.503956584820477       11.241655960148337       0
5         1         2       1        9.099448087633004       11.4477633340021       0
6         1         2       1        8.69493959044553       11.241655960148337       0
7         2         1       1        -12.598626913188411       9.494898637402933       0
8         2         2       1        -12.892519539334648       9.09039014021546       0
9         2         2       1        -12.304734287042175       9.09039014021546       0
10         2         2       1        -12.194118416000938       9.78879126354917       0
11         2         2       1        -12.598626913188411       9.994898637402933       0
12         2         2       1        -13.003135410375885       9.78879126354917       0
13         3         1       1        0.3535634541567667       2.460204178783524       0
14         3         2       1        0.05967082801053014       2.0556956815960503       0
15         3         2       1        0.6474560803030033       2.0556956815960503       0
16         3         2       1        0.7580719513442404       2.7540968049297607       0
17         3         2       1        0.3535634541567667       2.960204178783524       0
18         3         2       1        -0.05094504303070696       2.7540968049297607       0
19         4         1       1        2.6541938312090103       -3.7519919977182283       0
20         4         2       1        2.3603012050627736       -4.156500494905702       0
21         4         2       1        2.948086457355247       -4.156500494905702       0
22         4         2       1        3.058702328396484       -3.4580993715719917       0
23         4         2       1        2.6541938312090103       -3.2519919977182283       0
24         4         2       1        2.2496853340215366       -3.4580993715719917       0
25         5         1       1        -2.436402872740178       13.116982555335792       0
26         5         2       1        -2.7302954988864148       12.712474058148318       0
27         5         2       1        -2.1425102465939414       12.712474058148318       0
28         5         2       1        -2.0318943755527044       13.410875181482028       0
29         5         2       1        -2.436402872740178       13.616982555335792       0
30         5         2       1        -2.840911369927652       13.410875181482028       0
31         6         1       1        14.519574771900807       15.896905458588712       0
32         6         2       1        14.22568214575457       15.492396961401239       0
33         6         2       1        14.813467398047043       15.492396961401239       0
34         6         2       1        14.92408326908828       16.190798084734947       0
35         6         2       1        14.519574771900807       16.396905458588712       0
36         6         2       1        14.115066274713334       16.190798084734947       0
37         7         1       1        -8.521985295414964       3.1628245499060412       0
38         7         2       1        -8.815877921561201       2.7583160527185675       0
39         7         2       1        -8.228092669268728       2.7583160527185675       0
40         7         2       1        -8.117476798227491       3.456717176052278       0
41         7         2       1        -8.521985295414964       3.6628245499060412       0
42         7         2       1        -8.926493792602438       3.456717176052278       0
43         8         1       1        13.805425669268732       -2.6666776763454827       0
44         8         2       1        13.511533043122496       -3.0711861735329564       0
45         8         2       1        14.09931829541497       -3.0711861735329564       0
46         8         2       1        14.209934166456206       -2.372785050199246       0
47         8         2       1        13.805425669268732       -2.1666776763454827       0
48         8         2       1        13.40091717208126       -2.372785050199246       0
49         9         1       1        -9.58854538034847       -10.710227927674403       0
50         9         2       1        -9.882438006494707       -11.114736424861876       0
51         9         2       1        -9.294652754202234       -11.114736424861876       0
52         9         2       1        -9.184036883160998       -10.416335301528166       0
53         9         2       1        -9.58854538034847       -10.210227927674403       0
54         9         2       1        -9.993053877535944       -10.416335301528166       0
55         10         1       1        -8.358104381786788       7.716076305869532       0
56         10         2       1        -8.651997007933025       7.311567808682058       0
57         10         2       1        -8.064211755640551       7.311567808682058       0
58         10         2       1        -7.953595884599315       8.009968932015768       0
59         10         2       1        -8.358104381786788       8.216076305869532       0
60         10         2       1        -8.762612878974261       8.009968932015768       0
61         11         1       1        -14.817522610967519       -14.10889176485555       0
62         11         2       1        -15.111415237113755       -14.513400262043023       0
63         11         2       1        -14.523629984821282       -14.513400262043023       0
64         11         2       1        -14.413014113780045       -13.814999138709313       0
65         11         2       1        -14.817522610967519       -13.60889176485555       0
66         11         2       1        -15.222031108154992       -13.814999138709313       0
67         12         1       1        -13.600910173401186       -3.4742489021742315       0
68         12         2       1        -13.894802799547422       -3.8787573993617053       0
69         12         2       1        -13.307017547254949       -3.8787573993617053       0
70         12         2       1        -13.196401676213712       -3.180356276027995       0
71         12         2       1        -13.600910173401186       -2.9742489021742315       0
72         12         2       1        -14.005418670588659       -3.180356276027995       0
73         13         1       1        -5.702983413514737       -4.030274660624773       0
74         13         2       1        -5.9968760396609735       -4.434783157812246       0
75         13         2       1        -5.4090907873685       -4.434783157812246       0
76         13         2       1        -5.2984749163272635       -3.7363820344785363       0
77         13         2       1        -5.702983413514737       -3.530274660624773       0
78         13         2       1        -6.10749191070221       -3.7363820344785363       0
79         14         1       1        -11.147968243774429       -8.802534299642282       0
80         14         2       1        -11.441860869920665       -9.207042796829755       0
81         14         2       1        -10.854075617628192       -9.207042796829755       0
82         14         2       1        -10.743459746586955       -8.508641673496045       0
83         14         2       1        -11.147968243774429       -8.302534299642282       0
84         14         2       1        -11.552476740961902       -8.508641673496045       0
85         15         1       1        14.934278444426123       0.9005091619353109       0
86         15         2       1        14.640385818279887       0.4960006647478372       0
87         15         2       1        15.22817107057236       0.4960006647478372       0
88         15         2       1        15.338786941613597       1.1944017880815476       0
89         15         2       1        14.934278444426123       1.400509161935311       0
90         15         2       1        14.52976994723865       1.1944017880815476       0
91         16         1       1        -8.549426996443511       -10.361375281488336       0
92         16         2       1        -8.843319622589748       -10.765883778675809       0
93         16         2       1        -8.255534370297275       -10.765883778675809       0
94         16         2       1        -8.144918499256038       -10.067482655342099       0
95         16         2       1        -8.549426996443511       -9.861375281488336       0
96         16         2       1        -8.953935493630985       -10.067482655342099       0
97         17         1       1        9.679884645353773       6.32689137248159       0
98         17         2       1        9.385992019207537       5.922382875294117       0
99         17         2       1        9.97377727150001       5.922382875294117       0
100         17         2       1        10.084393142541247       6.620783998627827       0
101         17         2       1        9.679884645353773       6.82689137248159       0
102         17         2       1        9.2753761481663       6.620783998627827       0
103         18         1       1        11.072996038702161       -9.681127963036253       0
104         18         2       1        10.779103412555925       -10.085636460223727       0
105         18         2       1        11.366888664848398       -10.085636460223727       0
106         18         2       1        11.477504535889635       -9.387235336890017       0
107         18         2       1        11.072996038702161       -9.181127963036253       0
108         18         2       1        10.668487541514688       -9.387235336890017       0
109         19         1       1        8.905694204067672       11.443601622838685       0
110         19         2       1        8.611801577921435       11.039093125651211       0
111         19         2       1        9.199586830213908       11.039093125651211       0
112         19         2       1        9.310202701255145       11.737494248984921       0
113         19         2       1        8.905694204067672       11.943601622838685       0
114         19         2       1        8.501185706880198       11.737494248984921       0
115         20         1       1        -5.99676918150303       -1.333728779664785       0
116         20         2       1        -6.290661807649267       -1.7382372768522587       0
117         20         2       1        -5.702876555356793       -1.7382372768522587       0
118         20         2       1        -5.592260684315557       -1.0398361535185483       0
119         20         2       1        -5.99676918150303       -0.833728779664785       0
120         20         2       1        -6.401277678690503       -1.0398361535185483       0
121         21         1       1        -0.23005523809865736       -8.216308197226429       0
122         21         2       1        -0.5239478642448939       -8.620816694413902       0
123         21         2       1        0.06383738804757921       -8.620816694413902       0
124         21         2       1        0.17445325908881631       -7.922415571080192       0
125         21         2       1        -0.23005523809865736       -7.716308197226429       0
126         21         2       1        -0.6345637352861311       -7.922415571080192       0
127         22         1       1        13.37588114811535       -11.38205355418631       0
128         22         2       1        13.081988521969114       -11.786562051373783       0
129         22         2       1        13.669773774261587       -11.786562051373783       0
130         22         2       1        13.780389645302824       -11.088160928040073       0
131         22         2       1        13.37588114811535       -10.88205355418631       0
132         22         2       1        12.971372650927878       -11.088160928040073       0
133         23         1       1        -13.813682123796717       -2.7359783440523806       0
134         23         2       1        -14.107574749942954       -3.1404868412398543       0
135         23         2       1        -13.51978949765048       -3.1404868412398543       0
136         23         2       1        -13.409173626609244       -2.442085717906144       0
137         23         2       1        -13.813682123796717       -2.2359783440523806       0
138         23         2       1        -14.21819062098419       -2.442085717906144       0
139         24         1       1        10.445451270112898       -7.053588914005175       0
140         24         2       1        10.151558643966661       -7.458097411192648       0
141         24         2       1        10.739343896259134       -7.458097411192648       0
142         24         2       1        10.849959767300371       -6.759696287858938       0
143         24         2       1        10.445451270112898       -6.553588914005175       0
144         24         2       1        10.040942772925424       -6.759696287858938       0
145         25         1       1        -15.506003665738316       -5.721970898400983       0
146         25         2       1        -15.799896291884552       -6.126479395588456       0
147         25         2       1        -15.212111039592079       -6.126479395588456       0
148         25         2       1        -15.101495168550843       -5.428078272254746       0
149         25         2       1        -15.506003665738316       -5.221970898400983       0
150         25         2       1        -15.910512162925789       -5.428078272254746       0
151         26         1       1        11.65620971995256       5.337330522564361       0
152         26         2       1        11.362317093806324       4.932822025376888       0
153         26         2       1        11.950102346098797       4.932822025376888       0
154         26         2       1        12.060718217140034       5.631223148710598       0
155         26         2       1        11.65620971995256       5.837330522564361       0
156         26         2       1        11.251701222765087       5.631223148710598       0
157         27         1       1        9.973164930442213       0.4357705430831622       0
158         27         2       1        9.679272304295976       0.031262045895688484       0
159         27         2       1        10.26705755658845       0.031262045895688484       0
160         27         2       1        10.377673427629686       0.7296631692293989       0
161         27         2       1        9.973164930442213       0.9357705430831622       0
162         27         2       1        9.56865643325474       0.7296631692293989       0
163         28         1       1        15.245400810516895       -15.467870226139578       0
164         28         2       1        14.951508184370658       -15.872378723327051       0
165         28         2       1        15.539293436663131       -15.872378723327051       0
166         28         2       1        15.649909307704368       -15.173977599993341       0
167         28         2       1        15.245400810516895       -14.967870226139578       0
168         28         2       1        14.840892313329421       -15.173977599993341       0
169         29         1       1        -12.132634610822201       -2.308850502182139       0
170         29         2       1        -12.426527236968438       -2.713358999369613       0
171         29         2       1        -11.838741984675965       -2.713358999369613       0
172         29         2       1        -11.728126113634728       -2.0149578760359024       0
173         29         2       1        -12.132634610822201       -1.808850502182139       0
174         29         2       1        -12.537143108009674       -2.0149578760359024       0
175         30         1       1        14.423674812182846       -15.31077246158495       0
176         30         2       1        14.129782186036609       -15.715280958772423       0
177         30         2       1        14.717567438329082       -15.715280958772423       0
178         30         2       1        14.828183309370319       -15.016879835438713       0
179         30         2       1        14.423674812182846       -14.81077246158495       0
180         30         2       1        14.019166314995372       -15.016879835438713       0
181         31         1       1        11.009250689059058       -6.302225481718022       0
182         31         2       1        10.715358062912822       -6.706733978905495       0
183         31         2       1        11.303143315205295       -6.706733978905495       0
184         31         2       1        11.413759186246532       -6.008332855571785       0
185         31         2       1        11.009250689059058       -5.802225481718022       0
186         31         2       1        10.604742191871585       -6.008332855571785       0
187         32         1       1        0.42769811660621215       -1.3214670654603715       0
188         32         2       1        0.13380549045997558       -1.7259755626478452       0
189         32         2       1        0.7215907427524487       -1.7259755626478452       0
190         32         2       1        0.8322066137936859       -1.0275744393141348       0
191         32         2       1        0.42769811660621215       -0.8214670654603715       0
192         32         2       1        0.023189619418738483       -1.0275744393141348       0
193         33         1       1        -9.02921542378747       -5.58463933472105       0
194         33         2       1        -9.323108049933706       -5.989147831908523       0
195         33         2       1        -8.735322797641233       -5.989147831908523       0
196         33         2       1        -8.624706926599996       -5.290746708574813       0
197         33         2       1        -9.02921542378747       -5.08463933472105       0
198         33         2       1        -9.433723920974943       -5.290746708574813       0
199         34         1       1        9.351172050687463       -10.060156048299955       0
200         34         2       1        9.057279424541226       -10.464664545487429       0
201         34         2       1        9.6450646768337       -10.464664545487429       0
202         34         2       1        9.755680547874936       -9.766263422153719       0
203         34         2       1        9.351172050687463       -9.560156048299955       0
204         34         2       1        8.94666355349999       -9.766263422153719       0
205         35         1       1        5.081671228260426       -5.286597930796692       0
206         35         2       1        4.787778602114189       -5.691106427984165       0
207         35         2       1        5.375563854406662       -5.691106427984165       0
208         35         2       1        5.486179725447899       -4.992705304650455       0
209         35         2       1        5.081671228260426       -4.786597930796692       0
210         35         2       1        4.677162731072952       -4.992705304650455       0
211         36         1       1        -15.830619390155842       -13.196782477510038       0
212         36         2       1        -16.124512016302077       -13.60129097469751       0
213         36         2       1        -15.536726764009606       -13.60129097469751       0
214         36         2       1        -15.426110892968369       -12.9028898513638       0
215         36         2       1        -15.830619390155842       -12.696782477510038       0
216         36         2       1        -16.235127887343317       -12.9028898513638       0
217         37         1       1        2.983303493493718       8.744600891698134       0
218         37         2       1        2.6894108673474815       8.34009239451066       0
219         37         2       1        3.277196119639955       8.34009239451066       0
220         37         2       1        3.387811990681192       9.03849351784437       0
221         37         2       1        2.983303493493718       9.244600891698134       0
222         37         2       1        2.5787949963062444       9.03849351784437       0
223         38         1       1        -13.443058169663686       8.704972561658295       0
224         38         2       1        -13.736950795809923       8.300464064470821       0
225         38         2       1        -13.14916554351745       8.300464064470821       0
226         38         2       1        -13.038549672476213       8.998865187804531       0
227         38         2       1        -13.443058169663686       9.204972561658295       0
228         38         2       1        -13.84756666685116       8.998865187804531       0
229         39         1       1        15.595809962896183       5.703304610065924       0
230         39         2       1        15.301917336749947       5.298796112878451       0
231         39         2       1        15.88970258904242       5.298796112878451       0
232         39         2       1        16.00031846008366       5.997197236212161       0
233         39         2       1        15.595809962896183       6.203304610065924       0
234         39         2       1        15.19130146570871       5.997197236212161       0
235         40         1       1        14.601204118393262       -9.876286104114268       0
236         40         2       1        14.307311492247026       -10.280794601301741       0
237         40         2       1        14.895096744539499       -10.280794601301741       0
238         40         2       1        15.005712615580736       -9.582393477968031       0
239         40         2       1        14.601204118393262       -9.376286104114268       0
240         40         2       1        14.196695621205789       -9.582393477968031       0
241         41         1       1        -7.8128188268167165       14.79701808362562       0
242         41         2       1        -8.106711452962953       14.392509586438146       0
243         41         2       1        -7.51892620067048       14.392509586438146       0
244         41         2       1        -7.408310329629243       15.090910709771856       0
245         41         2       1        -7.8128188268167165       15.29701808362562       0
246         41         2       1        -8.21732732400419       15.090910709771856       0
247         42         1       1        5.133654704048919       0.4999108023088574       0
248         42         2       1        4.839762077902682       0.0954023051213837       0
249         42         2       1        5.427547330195155       0.0954023051213837       0
250         42         2       1        5.538163201236392       0.7938034284550941       0
251         42         2       1        5.133654704048919       0.9999108023088574       0
252         42         2       1        4.729146206861445       0.7938034284550941       0
253         43         1       1        -15.610191405790982       -8.067787374439348       0
254         43         2       1        -15.904084031937218       -8.472295871626821       0
255         43         2       1        -15.316298779644745       -8.472295871626821       0
256         43         2       1        -15.205682908603508       -7.773894748293111       0
257         43         2       1        -15.610191405790982       -7.567787374439348       0
258         43         2       1        -16.014699902978457       -7.773894748293111       0
259         44         1       1        -14.092394614620698       -15.335683528207824       0
260         44         2       1        -14.386287240766935       -15.740192025395297       0
261         44         2       1        -13.798501988474461       -15.740192025395297       0
262         44         2       1        -13.687886117433225       -15.041790902061587       0
263         44         2       1        -14.092394614620698       -14.835683528207824       0
264         44         2       1        -14.496903111808171       -15.041790902061587       0
265         45         1       1        0.5916987339202038       3.915798778422616       0
266         45         2       1        0.2978061077739672       3.511290281235142       0
267         45         2       1        0.8855913600664403       3.511290281235142       0
268         45         2       1        0.9962072311076775       4.2096914045688525       0
269         45         2       1        0.5916987339202038       4.415798778422616       0
270         45         2       1        0.1871902367327301       4.2096914045688525       0
271         46         1       1        12.684528860368577       -9.17206866032588       0
272         46         2       1        12.39063623422234       -9.576577157513354       0
273         46         2       1        12.978421486514813       -9.576577157513354       0
274         46         2       1        13.08903735755605       -8.878176034179644       0
275         46         2       1        12.684528860368577       -8.67206866032588       0
276         46         2       1        12.280020363181103       -8.878176034179644       0
277         47         1       1        -3.074880523724598       -3.4256405383007724       0
278         47         2       1        -3.368773149870835       -3.830149035488246       0
279         47         2       1        -2.7809878975783615       -3.830149035488246       0
280         47         2       1        -2.6703720265371245       -3.1317479121545357       0
281         47         2       1        -3.074880523724598       -2.9256405383007724       0
282         47         2       1        -3.479389020912072       -3.1317479121545357       0
283         48         1       1        -12.449386460102303       11.204609968832727       0
284         48         2       1        -12.74327908624854       10.800101471645254       0
285         48         2       1        -12.155493833956067       10.800101471645254       0
286         48         2       1        -12.04487796291483       11.498502594978964       0
287         48         2       1        -12.449386460102303       11.704609968832727       0
288         48         2       1        -12.853894957289777       11.498502594978964       0
289         49         1       1        7.665693954305283       -14.444619547509799       0
290         49         2       1        7.371801328159046       -14.849128044697272       0
291         49         2       1        7.95958658045152       -14.849128044697272       0
292         49         2       1        8.070202451492756       -14.150726921363562       0
293         49         2       1        7.665693954305283       -13.944619547509799       0
294         49         2       1        7.26118545711781       -14.150726921363562       0
295         50         1       1        2.206655670137149       -10.472459611571981       0
296         50         2       1        1.9127630439909122       -10.876968108759455       0
297         50         2       1        2.5005482962833856       -10.876968108759455       0
298         50         2       1        2.6111641673246226       -10.178566985425745       0
299         50         2       1        2.206655670137149       -9.972459611571981       0
300         50         2       1        1.8021471729496752       -10.178566985425745       0
301         51         1       1        12.474682562556328       -15.393756605474241       0
302         51         2       1        12.180789936410092       -15.798265102661714       0
303         51         2       1        12.768575188702565       -15.798265102661714       0
304         51         2       1        12.879191059743802       -15.099863979328005       0
305         51         2       1        12.474682562556328       -14.893756605474241       0
306         51         2       1        12.070174065368855       -15.099863979328005       0
307         52         1       1        13.073705177777       -10.77246408390528       0
308         52         2       1        12.779812551630764       -11.176972581092754       0
309         52         2       1        13.367597803923237       -11.176972581092754       0
310         52         2       1        13.478213674964474       -10.478571457759044       0
311         52         2       1        13.073705177777       -10.27246408390528       0
312         52         2       1        12.669196680589527       -10.478571457759044       0
313         53         1       1        -5.757197691674001       14.483429381085159       0
314         53         2       1        -6.051090317820238       14.078920883897686       0
315         53         2       1        -5.463305065527765       14.078920883897686       0
316         53         2       1        -5.352689194486528       14.777322007231396       0
317         53         2       1        -5.757197691674001       14.983429381085159       0
318         53         2       1        -6.161706188861475       14.777322007231396       0
319         54         1       1        7.764662700010366       0.9308359987955939       0
320         54         2       1        7.470770073864129       0.5263275016081201       0
321         54         2       1        8.058555326156602       0.5263275016081201       0
322         54         2       1        8.169171197197839       1.2247286249418305       0