# starting configuration template for LAMMPS available at
# https://github.com/OljaOctagon/Introduction-to-Computational-Physics
# File format according to https://docs.lammps.org/2001/data_format.html

1350 atoms
1125 bonds
1125 angles

2 atom types
1 bond types
1 angle types
      
-10   10     xlo xhi
-10   10     ylo yhi
-0.5   0.5     zlo zhi
         
Masses
#  atomtype, mass
1       2.0  
2       0.5  


Atoms 
#  atom-ID       mol-ID       atom-type       x       y      z
1         1         1       1        -2.3420223264439777       6.2618145845403       0
2         1         2       1        -2.6359149525902144       5.857306087352827       0
3         1         2       1        -2.048129700297741       5.857306087352827       0
4         1         2       1        -1.937513829256504       6.555707210686537       0
5         1         2       1        -2.3420223264439777       6.7618145845403       0
6         1         2       1        -2.7465308236314514       6.555707210686537       0
7         2         1       1        -5.983630908814557       -8.134315384086674       0
8         2         2       1        -6.277523534960793       -8.538823881274148       0
9         2         2       1        -5.68973828266832       -8.538823881274148       0
10         2         2       1        -5.5791224116270834       -7.840422757940438       0
11         2         2       1        -5.983630908814557       -7.634315384086674       0
12         2         2       1        -6.38813940600203       -7.840422757940438       0
13         3         1       1        8.228506848633486       -2.6716332746922618       0
14         3         2       1        7.93461422248725       -3.0761417718797355       0
15         3         2       1        8.522399474779723       -3.0761417718797355       0
16         3         2       1        8.63301534582096       -2.377740648546025       0
17         3         2       1        8.228506848633486       -2.1716332746922618       0
18         3         2       1        7.823998351446013       -2.377740648546025       0
19         4         1       1        5.687240037246571       9.040509717727595       0
20         4         2       1        5.3933474111003346       8.636001220540122       0
21         4         2       1        5.981132663392808       8.636001220540122       0
22         4         2       1        6.0917485344340445       9.334402343873831       0
23         4         2       1        5.687240037246571       9.540509717727595       0
24         4         2       1        5.282731540059098       9.334402343873831       0
25         5         1       1        -2.5461728104660697       -8.071926796308071       0
26         5         2       1        -2.8400654366123064       -8.476435293495545       0
27         5         2       1        -2.252280184319833       -8.476435293495545       0
28         5         2       1        -2.141664313278596       -7.778034170161835       0
29         5         2       1        -2.5461728104660697       -7.571926796308071       0
30         5         2       1        -2.9506813076535434       -7.778034170161835       0
31         6         1       1        4.113804382403325       -6.299242693890661       0
32         6         2       1        3.8199117562570883       -6.703751191078135       0
33         6         2       1        4.407697008549562       -6.703751191078135       0
34         6         2       1        4.518312879590798       -6.005350067744424       0
35         6         2       1        4.113804382403325       -5.799242693890661       0
36         6         2       1        3.7092958852158513       -6.005350067744424       0
37         7         1       1        1.0994267082993545       6.375050124354409       0
38         7         2       1        0.805534082153118       5.970541627166936       0
39         7         2       1        1.3933193344455912       5.970541627166936       0
40         7         2       1        1.5039352054868282       6.668942750500646       0
41         7         2       1        1.0994267082993545       6.875050124354409       0
42         7         2       1        0.6949182111118808       6.668942750500646       0
43         8         1       1        4.183276294435386       8.556783578932464       0
44         8         2       1        3.889383668289149       8.15227508174499       0
45         8         2       1        4.477168920581622       8.15227508174499       0
46         8         2       1        4.587784791622859       8.8506762050787       0
47         8         2       1        4.183276294435386       9.056783578932464       0
48         8         2       1        3.778767797247912       8.8506762050787       0
49         9         1       1        6.206523903701044       -6.370159385782912       0
50         9         2       1        5.912631277554807       -6.774667882970386       0
51         9         2       1        6.50041652984728       -6.774667882970386       0
52         9         2       1        6.611032400888517       -6.076266759636676       0
53         9         2       1        6.206523903701044       -5.870159385782912       0
54         9         2       1        5.80201540651357       -6.076266759636676       0
55         10         1       1        2.860392488430282       9.255303986977982       0
56         10         2       1        2.5664998622840454       8.850795489790508       0
57         10         2       1        3.1542851145765187       8.850795489790508       0
58         10         2       1        3.2649009856177558       9.549196613124218       0
59         10         2       1        2.860392488430282       9.755303986977982       0
60         10         2       1        2.4558839912428083       9.549196613124218       0
61         11         1       1        1.6024552869679454       4.6030804668831315       0
62         11         2       1        1.3085626608217087       4.198571969695658       0
63         11         2       1        1.896347913114182       4.198571969695658       0
64         11         2       1        2.006963784155419       4.896973093029368       0
65         11         2       1        1.6024552869679454       5.1030804668831315       0
66         11         2       1        1.1979467897804716       4.896973093029368       0
67         12         1       1        9.894606236155568       2.178966576490426       0
68         12         2       1        9.60071361000933       1.7744580793029523       0
69         12         2       1        10.188498862301804       1.7744580793029523       0
70         12         2       1        10.29911473334304       2.4728592026366627       0
71         12         2       1        9.894606236155568       2.678966576490426       0
72         12         2       1        9.490097738968094       2.4728592026366627       0
73         13         1       1        8.380168329603698       -3.6530085942459456       0
74         13         2       1        8.086275703457462       -4.05751709143342       0
75         13         2       1        8.674060955749935       -4.05751709143342       0
76         13         2       1        8.784676826791172       -3.359115968099709       0
77         13         2       1        8.380168329603698       -3.1530085942459456       0
78         13         2       1        7.975659832416225       -3.359115968099709       0
79         14         1       1        -0.6062412527466527       -4.736524447517219       0
80         14         2       1        -0.9001338788928893       -5.141032944704692       0
81         14         2       1        -0.3123486266004162       -5.141032944704692       0
82         14         2       1        -0.20173275555917908       -4.442631821370982       0
83         14         2       1        -0.6062412527466527       -4.236524447517219       0
84         14         2       1        -1.0107497499341265       -4.442631821370982       0
85         15         1       1        5.326295403078355       -2.3932719035288113       0
86         15         2       1        5.032402776932118       -2.797780400716285       0
87         15         2       1        5.620188029224591       -2.797780400716285       0
88         15         2       1        5.730803900265828       -2.0993792773825746       0
89         15         2       1        5.326295403078355       -1.8932719035288113       0
90         15         2       1        4.921786905890881       -2.0993792773825746       0
91         16         1       1        -1.2905812242515644       1.2123575172314212       0
92         16         2       1        -1.584473850397801       0.8078490200439474       0
93         16         2       1        -0.9966885981053278       0.8078490200439474       0
94         16         2       1        -0.8860727270640907       1.5062501433776578       0
95         16         2       1        -1.2905812242515644       1.7123575172314212       0
96         16         2       1        -1.6950897214390381       1.5062501433776578       0
97         17         1       1        -2.6061033583970827       5.544699942467666       0
98         17         2       1        -2.8999959845433194       5.140191445280193       0
99         17         2       1        -2.312210732250846       5.140191445280193       0
100         17         2       1        -2.201594861209609       5.838592568613903       0
101         17         2       1        -2.6061033583970827       6.044699942467666       0
102         17         2       1        -3.0106118555845565       5.838592568613903       0
103         18         1       1        7.239139811087231       1.9146824465754477       0
104         18         2       1        6.945247184940994       1.510173949387974       0
105         18         2       1        7.533032437233468       1.510173949387974       0
106         18         2       1        7.643648308274704       2.2085750727216844       0
107         18         2       1        7.239139811087231       2.4146824465754477       0
108         18         2       1        6.834631313899758       2.2085750727216844       0
109         19         1       1        9.944334353423091       4.968679933888186       0
110         19         2       1        9.650441727276855       4.564171436700713       0
111         19         2       1        10.238226979569328       4.564171436700713       0
112         19         2       1        10.348842850610565       5.262572560034423       0
113         19         2       1        9.944334353423091       5.468679933888186       0
114         19         2       1        9.539825856235618       5.262572560034423       0
115         20         1       1        7.229714786008323       -9.653532229972585       0
116         20         2       1        6.935822159862086       -10.058040727160058       0
117         20         2       1        7.5236074121545595       -10.058040727160058       0
118         20         2       1        7.634223283195796       -9.359639603826349       0
119         20         2       1        7.229714786008323       -9.153532229972585       0
120         20         2       1        6.82520628882085       -9.359639603826349       0
121         21         1       1        -6.619357669609302       -2.821556717884876       0
122         21         2       1        -6.913250295755539       -3.22606521507235       0
123         21         2       1        -6.3254650434630655       -3.22606521507235       0
124         21         2       1        -6.214849172421829       -2.5276640917386395       0
125         21         2       1        -6.619357669609302       -2.321556717884876       0
126         21         2       1        -7.0238661667967754       -2.5276640917386395       0
127         22         1       1        1.0606258460932665       -1.2944243765537244       0
128         22         2       1        0.7667332199470299       -1.6989328737411982       0
129         22         2       1        1.3545184722395032       -1.6989328737411982       0
130         22         2       1        1.4651343432807402       -1.0005317504074878       0
131         22         2       1        1.0606258460932665       -0.7944243765537244       0
132         22         2       1        0.6561173489057928       -1.0005317504074878       0
133         23         1       1        0.04929122657792995       -6.859069030129394       0
134         23         2       1        -0.24460139956830662       -7.263577527316867       0
135         23         2       1        0.3431838527241665       -7.263577527316867       0
136         23         2       1        0.4537997237654036       -6.565176403983157       0
137         23         2       1        0.04929122657792995       -6.359069030129394       0
138         23         2       1        -0.3552172706095437       -6.565176403983157       0
139         24         1       1        1.7253606146099383       4.362251708370415       0
140         24         2       1        1.4314679884637016       3.9577432111829416       0
141         24         2       1        2.019253240756175       3.9577432111829416       0
142         24         2       1        2.129869111797412       4.656144334516652       0
143         24         2       1        1.7253606146099383       4.862251708370415       0
144         24         2       1        1.3208521174224646       4.656144334516652       0
145         25         1       1        9.464954303203278       -3.913765712646253       0
146         25         2       1        9.171061677057041       -4.318274209833726       0
147         25         2       1        9.758846929349515       -4.318274209833726       0
148         25         2       1        9.869462800390751       -3.619873086500016       0
149         25         2       1        9.464954303203278       -3.413765712646253       0
150         25         2       1        9.060445806015805       -3.619873086500016       0
151         26         1       1        0.5242212790532808       3.9518943011612873       0
152         26         2       1        0.23032865290704418       3.5473858039738135       0
153         26         2       1        0.8181139051995173       3.5473858039738135       0
154         26         2       1        0.9287297762407545       4.245786927307524       0
155         26         2       1        0.5242212790532808       4.451894301161287       0
156         26         2       1        0.11971278186580708       4.245786927307524       0
157         27         1       1        -2.8888077576183484       -0.9916995174706109       0
158         27         2       1        -3.182700383764585       -1.3962080146580846       0
159         27         2       1        -2.5949151314721117       -1.3962080146580846       0
160         27         2       1        -2.4842992604308747       -0.6978068913243742       0
161         27         2       1        -2.8888077576183484       -0.4916995174706109       0
162         27         2       1        -3.293316254805822       -0.6978068913243742       0
163         28         1       1        0.9734594889161041       1.2151298631547043       0
164         28         2       1        0.6795668627698676       0.8106213659672306       0
165         28         2       1        1.2673521150623408       0.8106213659672306       0
166         28         2       1        1.3779679861035778       1.509022489300941       0
167         28         2       1        0.9734594889161041       1.7151298631547043       0
168         28         2       1        0.5689509917286304       1.509022489300941       0
169         29         1       1        -1.9276466088699067       -7.837692737444238       0
170         29         2       1        -2.2215392350161434       -8.242201234631711       0
171         29         2       1        -1.63375398272367       -8.242201234631711       0
172         29         2       1        -1.523138111682433       -7.543800111298001       0
173         29         2       1        -1.9276466088699067       -7.337692737444238       0
174         29         2       1        -2.3321551060573804       -7.543800111298001       0
175         30         1       1        9.307665582844983       -5.448400772041215       0
176         30         2       1        9.013772956698746       -5.8529092692286895       0
177         30         2       1        9.60155820899122       -5.8529092692286895       0
178         30         2       1        9.712174080032456       -5.154508145894979       0
179         30         2       1        9.307665582844983       -4.948400772041215       0
180         30         2       1        8.90315708565751       -5.154508145894979       0
181         31         1       1        8.134339905170467       8.976042283227521       0
182         31         2       1        7.8404472790242306       8.571533786040048       0
183         31         2       1        8.428232531316704       8.571533786040048       0
184         31         2       1        8.53884840235794       9.269934909373758       0
185         31         2       1        8.134339905170467       9.476042283227521       0
186         31         2       1        7.729831407982994       9.269934909373758       0
187         32         1       1        0.2843519198773219       5.825164283981232       0
188         32         2       1        -0.009540706268914678       5.420655786793759       0
189         32         2       1        0.5782445460235585       5.420655786793759       0
190         32         2       1        0.6888604170647956       6.119056910127469       0
191         32         2       1        0.2843519198773219       6.325164283981232       0
192         32         2       1        -0.12015657731015178       6.119056910127469       0
193         33         1       1        2.6260797366178306       3.280478001973412       0
194         33         2       1        2.332187110471594       2.8759695047859384       0
195         33         2       1        2.9199723627640672       2.8759695047859384       0
196         33         2       1        3.0305882338053043       3.574370628119649       0
197         33         2       1        2.6260797366178306       3.780478001973412       0
198         33         2       1        2.221571239430357       3.574370628119649       0
199         34         1       1        -4.295054187683965       -0.8502840882023737       0
200         34         2       1        -4.588946813830201       -1.2547925853898474       0
201         34         2       1        -4.001161561537728       -1.2547925853898474       0
202         34         2       1        -3.890545690496491       -0.556391462056137       0
203         34         2       1        -4.295054187683965       -0.35028408820237367       0
204         34         2       1        -4.699562684871438       -0.556391462056137       0
205         35         1       1        -3.8356783924013733       -5.397669034909603       0
206         35         2       1        -4.12957101854761       -5.802177532097076       0
207         35         2       1        -3.5417857662551366       -5.802177532097076       0
208         35         2       1        -3.4311698952138996       -5.103776408763366       0
209         35         2       1        -3.8356783924013733       -4.897669034909603       0
210         35         2       1        -4.240186889588847       -5.103776408763366       0
211         36         1       1        -0.7704918067703055       -7.689103214692858       0
212         36         2       1        -1.0643844329165422       -8.093611711880332       0
213         36         2       1        -0.4765991806240689       -8.093611711880332       0
214         36         2       1        -0.3659833095828318       -7.395210588546622       0
215         36         2       1        -0.7704918067703055       -7.189103214692858       0
216         36         2       1        -1.1750003039577792       -7.395210588546622       0
217         37         1       1        -1.7301910216749263       -5.650907936435412       0
218         37         2       1        -2.024083647821163       -6.055416433622886       0
219         37         2       1        -1.4362983955286897       -6.055416433622886       0
220         37         2       1        -1.3256825244874526       -5.357015310289175       0
221         37         2       1        -1.7301910216749263       -5.150907936435412       0
222         37         2       1        -2.1346995188624       -5.357015310289175       0
223         38         1       1        7.223893697613605       -7.784370331790731       0
224         38         2       1        6.930001071467368       -8.188878828978204       0
225         38         2       1        7.517786323759841       -8.188878828978204       0
226         38         2       1        7.628402194801078       -7.490477705644494       0
227         38         2       1        7.223893697613605       -7.284370331790731       0
228         38         2       1        6.819385200426131       -7.490477705644494       0
229         39         1       1        6.373374741497543       8.343737358277131       0
230         39         2       1        6.079482115351306       7.939228861089658       0
231         39         2       1        6.667267367643779       7.939228861089658       0
232         39         2       1        6.777883238685016       8.637629984423368       0
233         39         2       1        6.373374741497543       8.843737358277131       0
234         39         2       1        5.968866244310069       8.637629984423368       0
235         40         1       1        -5.268753379602138       6.059838404252577       0
236         40         2       1        -5.562646005748375       5.655329907065104       0
237         40         2       1        -4.974860753455902       5.655329907065104       0
238         40         2       1        -4.864244882414665       6.353731030398814       0
239         40         2       1        -5.268753379602138       6.559838404252577       0
240         40         2       1        -5.673261876789612       6.353731030398814       0
241         41         1       1        -0.4606728285409787       7.273290032467141       0
242         41         2       1        -0.7545654546872153       6.868781535279668       0
243         41         2       1        -0.16678020239474212       6.868781535279668       0
244         41         2       1        -0.056164331353505015       7.567182658613378       0
245         41         2       1        -0.4606728285409787       7.773290032467141       0
246         41         2       1        -0.8651813257284524       7.567182658613378       0
247         42         1       1        -9.145896575572749       9.30391804981938       0
248         42         2       1        -9.439789201718986       8.899409552631907       0
249         42         2       1        -8.852003949426512       8.899409552631907       0
250         42         2       1        -8.741388078385276       9.597810675965617       0
251         42         2       1        -9.145896575572749       9.80391804981938       0
252         42         2       1        -9.550405072760222       9.597810675965617       0
253         43         1       1        -3.034262584679972       -5.937866019938493       0
254         43         2       1        -3.3281552108262087       -6.3423745171259664       0
255         43         2       1        -2.7403699585337353       -6.3423745171259664       0
256         43         2       1        -2.6297540874924983       -5.6439733937922565       0
257         43         2       1        -3.034262584679972       -5.437866019938493       0
258         43         2       1        -3.4387710818674457       -5.6439733937922565       0
259         44         1       1        -3.764860289602341       -1.2502968478383032       0
260         44         2       1        -4.0587529157485775       -1.654805345025777       0
261         44         2       1        -3.470967663456104       -1.654805345025777       0
262         44         2       1        -3.360351792414867       -0.9564042216920665       0
263         44         2       1        -3.764860289602341       -0.7502968478383032       0
264         44         2       1        -4.169368786789814       -0.9564042216920665       0
265         45         1       1        -9.585541201410809       0.6122883471981737       0
266         45         2       1        -9.879433827557046       0.20777985001069998       0
267         45         2       1        -9.291648575264572       0.20777985001069998       0
268         45         2       1        -9.181032704223336       0.9061809733444104       0
269         45         2       1        -9.585541201410809       1.1122883471981737       0
270         45         2       1        -9.990049698598282       0.9061809733444104       0
271         46         1       1        -1.4372023078430587       -4.711537240912438       0
272         46         2       1        -1.7310949339892954       -5.116045738099912       0
273         46         2       1        -1.143309681696822       -5.116045738099912       0
274         46         2       1        -1.032693810655585       -4.417644614766202       0
275         46         2       1        -1.4372023078430587       -4.211537240912438       0
276         46         2       1        -1.8417108050305324       -4.417644614766202       0
277         47         1       1        0.6710317754072719       2.266221963640726       0
278         47         2       1        0.3771391492610353       1.8617134664532524       0
279         47         2       1        0.9649244015535084       1.8617134664532524       0
280         47         2       1        1.0755402725947456       2.560114589786963       0
281         47         2       1        0.6710317754072719       2.766221963640726       0
282         47         2       1        0.2665232782197982       2.560114589786963       0
283         48         1       1        4.726487395908901       -4.714403333102039       0
284         48         2       1        4.432594769762664       -5.1189118302895125       0
285         48         2       1        5.020380022055138       -5.1189118302895125       0
286         48         2       1        5.130995893096374       -4.4205107069558025       0
287         48         2       1        4.726487395908901       -4.214403333102039       0
288         48         2       1        4.321978898721428       -4.4205107069558025       0
289         49         1       1        -7.376384648935337       -8.836934448594246       0
290         49         2       1        -7.670277275081574       -9.241442945781719       0
291         49         2       1        -7.082492022789101       -9.241442945781719       0
292         49         2       1        -6.971876151747864       -8.543041822448009       0
293         49         2       1        -7.376384648935337       -8.336934448594246       0
294         49         2       1        -7.780893146122811       -8.543041822448009       0
295         50         1       1        2.844264738386146       -7.876649380243796       0
296         50         2       1        2.5503721122399092       -8.28115787743127       0
297         50         2       1        3.1381573645323826       -8.28115787743127       0
298         50         2       1        3.2487732355736196       -7.582756754097559       0
299         50         2       1        2.844264738386146       -7.376649380243796       0
300         50         2       1        2.439756241198672       -7.582756754097559       0
301         51         1       1        -7.03752686465513       0.8916754643747247       0
302         51         2       1        -7.331419490801367       0.48716696718725094       0
303         51         2       1        -6.743634238508894       0.48716696718725094       0
304         51         2       1        -6.633018367467657       1.1855680905209613       0
305         51         2       1        -7.03752686465513       1.3916754643747247       0
306         51         2       1        -7.442035361842604       1.1855680905209613       0
307         52         1       1        2.9150748389739185       -4.672981001990499       0
308         52         2       1        2.621182212827682       -5.0774894991779735       0
309         52         2       1        3.208967465120155       -5.0774894991779735       0
310         52         2       1        3.3195833361613922       -4.379088375844263       0
311         52         2       1        2.9150748389739185       -4.172981001990499       0
312         52         2       1        2.5105663417864448       -4.379088375844263       0
313         53         1       1        7.513231805658485       -6.715396877775055       0
314         53         2       1        7.219339179512248       -7.119905374962528       0
315         53         2       1        7.807124431804722       -7.119905374962528       0
316         53         2       1        7.917740302845958       -6.421504251628818       0
317         53         2       1        7.513231805658485       -6.215396877775055       0
318         53         2       1        7.108723308471012       -6.421504251628818       0
319         54         1       1        -4.646004663323373       9.711199714807933       0
320         54         2       1        -4.939897289469609       9.30669121762046       0
321         54         2       1        -4.352112037177136       9.30669121762046       0
322         54         2       1        -4.241496166135899       10.00509234095417       0
323         54         2       1        -4.646004663323373       10.211199714807933       0