LAMMPS data file for Nanoparticles
2000 atoms
2 atom types
-19.339056994263093 19.339056994263093 xlo xhi
-19.339056994263093 19.339056994263093 ylo yhi
-0.5 0.5 zlo zhi

Atoms

1 1 1 1 -16.14 17.8799 0 0 0 0
 2 1 1 1 -15.9135 17.7742 0 0 0 0
 3 1 1 1 -15.6869 17.6685 0 0 0 0
 4 1 1 1 -15.4604 17.5628 0 0 0 0
 5 1 1 1 -15.2338 17.457 0 0 0 0
 6 1 1 1 -15.2121 17.208 0 0 0 0
 7 1 1 1 -15.1904 16.9589 0 0 0 0
 8 1 1 1 -15.1687 16.7099 0 0 0 0
 9 1 1 1 -15.147 16.4608 0 0 0 0
 10 1 1 1 -15.3735 16.5665 0 0 0 0
 11 1 1 1 -15.6001 16.6723 0 0 0 0
 12 1 1 1 -15.8266 16.778 0 0 0 0
 13 1 1 1 -16.0532 16.8837 0 0 0 0
 14 1 1 1 -16.0749 17.1328 0 0 0 0
 15 1 1 1 -16.0966 17.3818 0 0 0 0
 16 1 1 1 -16.1183 17.6309 0 0 0 0
 17 2 1 1 -16.363 17.5594 0 0 0 0
 18 2 1 1 -15.4 17.8104 0 0 0 0
 19 2 1 1 -14.924 16.7814 0 0 0 0
 20 2 1 1 -15.887 16.5303 0 0 0 0
 21 1 1 1 2.83387 -8.6627 0 0 0 0
 22 1 1 1 2.99586 -8.85311 0 0 0 0
 23 1 1 1 3.15785 -9.04353 0 0 0 0
 24 1 1 1 3.31985 -9.23395 0 0 0 0
 25 1 1 1 3.48184 -9.42436 0 0 0 0
 26 1 1 1 3.39793 -9.65986 0 0 0 0
 27 1 1 1 3.31402 -9.89536 0 0 0 0
 28 1 1 1 3.23012 -10.1309 0 0 0 0
 29 1 1 1 3.14621 -10.3664 0 0 0 0
 30 1 1 1 2.98422 -10.1759 0 0 0 0
 31 1 1 1 2.82222 -9.98552 0 0 0 0
 32 1 1 1 2.66023 -9.79511 0 0 0 0
 33 1 1 1 2.49823 -9.60469 0 0 0 0
 34 1 1 1 2.58214 -9.36919 0 0 0 0
 35 1 1 1 2.66605 -9.1337 0 0 0 0
 36 1 1 1 2.74996 -8.8982 0 0 0 0
 37 2 1 1 2.49768 -8.86139 0 0 0 0
 38 2 1 1 3.47786 -9.03387 0 0 0 0
 39 2 1 1 3.4824 -10.1677 0 0 0 0
 40 2 1 1 2.50221 -9.99518 0 0 0 0
 41 1 1 1 -1.34973 5.62948 0 0 0 0
 42 1 1 1 -1.10017 5.64442 0 0 0 0
 43 1 1 1 -0.850619 5.65936 0 0 0 0
 44 1 1 1 -0.601066 5.6743 0 0 0 0
 45 1 1 1 -0.351513 5.68924 0 0 0 0
 46 1 1 1 -0.213797 5.48059 0 0 0 0
 47 1 1 1 -0.0760814 5.27194 0 0 0 0
 48 1 1 1 0.0616344 5.06329 0 0 0 0
 49 1 1 1 0.19935 4.85465 0 0 0 0
 50 1 1 1 -0.0502029 4.83971 0 0 0 0
 51 1 1 1 -0.299756 4.82476 0 0 0 0
 52 1 1 1 -0.549309 4.80982 0 0 0 0
 53 1 1 1 -0.798862 4.79488 0 0 0 0
 54 1 1 1 -0.936578 5.00353 0 0 0 0
 55 1 1 1 -1.07429 5.21218 0 0 0 0
 56 1 1 1 -1.21201 5.42083 0 0 0 0
 57 2 1 1 -1.39312 5.24138 0 0 0 0
 58 2 1 1 -0.665918 5.92087 0 0 0 0
 59 2 1 1 0.24274 5.24274 0 0 0 0
 60 2 1 1 -0.484458 4.56326 0 0 0 0
 61 1 1 1 -0.747002 -16.8794 0 0 0 0
 62 1 1 1 -0.822859 -17.1176 0 0 0 0
 63 1 1 1 -0.898716 -17.3558 0 0 0 0
 64 1 1 1 -0.974573 -17.594 0 0 0 0
 65 1 1 1 -1.05043 -17.8322 0 0 0 0
 66 1 1 1 -1.29466 -17.8856 0 0 0 0
 67 1 1 1 -1.53888 -17.939 0 0 0 0
 68 1 1 1 -1.78311 -17.9924 0 0 0 0
 69 1 1 1 -2.02734 -18.0459 0 0 0 0
 70 1 1 1 -1.95148 -17.8076 0 0 0 0
 71 1 1 1 -1.87563 -17.5694 0 0 0 0
 72 1 1 1 -1.79977 -17.3312 0 0 0 0
 73 1 1 1 -1.72391 -17.093 0 0 0 0
 74 1 1 1 -1.47968 -17.0396 0 0 0 0
 75 1 1 1 -1.23546 -16.9862 0 0 0 0
 76 1 1 1 -0.99123 -16.9328 0 0 0 0
 77 2 1 1 -1.09349 -16.6992 0 0 0 0
 78 2 1 1 -0.721188 -17.6222 0 0 0 0
 79 2 1 1 -1.68085 -18.226 0 0 0 0
 80 2 1 1 -2.05315 -17.303 0 0 0 0
 81 1 1 1 11.3008 -19.2536 0 0 0 0
 82 1 1 1 11.3875 -19.0191 0 0 0 0
 83 1 1 1 11.4742 -18.7846 0 0 0 0
 84 1 1 1 11.561 -18.5502 0 0 0 0
 85 1 1 1 11.6477 -18.3157 0 0 0 0
 86 1 1 1 11.8941 -18.2736 0 0 0 0
 87 1 1 1 12.1405 -18.2314 0 0 0 0
 88 1 1 1 12.387 -18.1893 0 0 0 0
 89 1 1 1 12.6334 -18.1472 0 0 0 0
 90 1 1 1 12.5467 -18.3817 0 0 0 0
 91 1 1 1 12.4599 -18.6161 0 0 0 0
 92 1 1 1 12.3732 -18.8506 0 0 0 0
 93 1 1 1 12.2865 -19.0851 0 0 0 0
 94 1 1 1 12.04 -19.1272 0 0 0 0
 95 1 1 1 11.7936 -19.1693 0 0 0 0
 96 1 1 1 11.5472 -19.2115 0 0 0 0
 97 2 1 1 11.6386 19.2287 0 0 -1 0
 98 2 1 1 11.3091 -18.5103 0 0 0 0
 99 2 1 1 12.2956 -17.9513 0 0 0 0
 100 2 1 1 12.625 -18.8904 0 0 0 0
 101 1 1 1 -17.5519 2.81857 0 0 0 0
 102 1 1 1 -17.3611 2.65696 0 0 0 0
 103 1 1 1 -17.1704 2.49535 0 0 0 0
 104 1 1 1 -16.9796 2.33375 0 0 0 0
 105 1 1 1 -16.7889 2.17214 0 0 0 0
 106 1 1 1 -16.8335 1.92615 0 0 0 0
 107 1 1 1 -16.878 1.68016 0 0 0 0
 108 1 1 1 -16.9226 1.43417 0 0 0 0
 109 1 1 1 -16.9672 1.18817 0 0 0 0
 110 1 1 1 -17.158 1.34978 0 0 0 0
 111 1 1 1 -17.3487 1.51138 0 0 0 0
 112 1 1 1 -17.5394 1.67299 0 0 0 0
 113 1 1 1 -17.7302 1.83459 0 0 0 0
 114 1 1 1 -17.6856 2.08059 0 0 0 0
 115 1 1 1 -17.641 2.32658 0 0 0 0
 116 1 1 1 -17.5964 2.57257 0 0 0 0
 117 2 1 1 -17.8513 2.56796 0 0 0 0
 118 2 1 1 -16.8562 2.55682 0 0 0 0
 119 2 1 1 -16.6677 1.43878 0 0 0 0
 120 2 1 1 -17.6629 1.44992 0 0 0 0
 121 1 1 1 14.8961 -17.2987 0 0 0 0
 122 1 1 1 15.1458 -17.3111 0 0 0 0
 123 1 1 1 15.3955 -17.3234 0 0 0 0
 124 1 1 1 15.6452 -17.3358 0 0 0 0
 125 1 1 1 15.8949 -17.3482 0 0 0 0
 126 1 1 1 16.0091 -17.5706 0 0 0 0
 127 1 1 1 16.1232 -17.793 0 0 0 0
 128 1 1 1 16.2373 -18.0154 0 0 0 0
 129 1 1 1 16.3515 -18.2378 0 0 0 0
 130 1 1 1 16.1018 -18.2255 0 0 0 0
 131 1 1 1 15.8521 -18.2131 0 0 0 0
 132 1 1 1 15.6024 -18.2008 0 0 0 0
 133 1 1 1 15.3527 -18.1884 0 0 0 0
 134 1 1 1 15.2386 -17.966 0 0 0 0
 135 1 1 1 15.1244 -17.7436 0 0 0 0
 136 1 1 1 15.0103 -17.5211 0 0 0 0
 137 2 1 1 14.8107 -17.6798 0 0 0 0
 138 2 1 1 15.6076 -17.0836 0 0 0 0
 139 2 1 1 16.4369 -17.8568 0 0 0 0
 140 2 1 1 15.64 -18.4529 0 0 0 0
 141 1 1 1 -0.690682 17.933 0 0 0 0
 142 1 1 1 -0.89539 18.0765 0 0 0 0
 143 1 1 1 -1.1001 18.2201 0 0 0 0
 144 1 1 1 -1.30481 18.3636 0 0 0 0
 145 1 1 1 -1.50951 18.5071 0 0 0 0
 146 1 1 1 -1.48759 18.7561 0 0 0 0
 147 1 1 1 -1.46566 19.0051 0 0 0 0
 148 1 1 1 -1.44373 19.2542 0 0 0 0
 149 1 1 1 -1.4218 -19.1749 0 0 1 0
 150 1 1 1 -1.21709 -19.3184 0 0 1 0
 151 1 1 1 -1.01239 19.2162 0 0 0 0
 152 1 1 1 -0.807678 19.0727 0 0 0 0
 153 1 1 1 -0.60297 18.9292 0 0 0 0
 154 1 1 1 -0.624898 18.6801 0 0 0 0
 155 1 1 1 -0.646826 18.4311 0 0 0 0
 156 1 1 1 -0.668754 18.1821 0 0 0 0
 157 2 1 1 -0.415332 18.2099 0 0 0 0
 158 2 1 1 -1.40737 18.1301 0 0 0 0
 159 2 1 1 -1.69715 19.2263 0 0 0 0
 160 2 1 1 -0.705112 19.3061 0 0 0 0
 161 1 1 1 10.6109 -8.04438 0 0 0 0
 162 1 1 1 10.3861 -8.15367 0 0 0 0
 163 1 1 1 10.1612 -8.26295 0 0 0 0
 164 1 1 1 9.93639 -8.37224 0 0 0 0
 165 1 1 1 9.71154 -8.48152 0 0 0 0
 166 1 1 1 9.50447 -8.34144 0 0 0 0
 167 1 1 1 9.29741 -8.20136 0 0 0 0
 168 1 1 1 9.09034 -8.06128 0 0 0 0
 169 1 1 1 8.88327 -7.9212 0 0 0 0
 170 1 1 1 9.10812 -7.81191 0 0 0 0
 171 1 1 1 9.33297 -7.70263 0 0 0 0
 172 1 1 1 9.55781 -7.59334 0 0 0 0
 173 1 1 1 9.78266 -7.48406 0 0 0 0
 174 1 1 1 9.98973 -7.62414 0 0 0 0
 175 1 1 1 10.1968 -7.76422 0 0 0 0
 176 1 1 1 10.4039 -7.9043 0 0 0 0
 177 2 1 1 10.5025 -7.66922 0 0 0 0
 178 2 1 1 10.0906 -8.57523 0 0 0 0
 179 2 1 1 8.99167 -8.29637 0 0 0 0
 180 2 1 1 9.40356 -7.39035 0 0 0 0
 181 1 1 1 14.045 -9.87663 0 0 0 0
 182 1 1 1 14.2121 -10.0625 0 0 0 0
 183 1 1 1 14.3793 -10.2484 0 0 0 0
 184 1 1 1 14.5464 -10.4343 0 0 0 0
 185 1 1 1 14.7136 -10.6203 0 0 0 0
 186 1 1 1 14.6362 -10.858 0 0 0 0
 187 1 1 1 14.5587 -11.0957 0 0 0 0
 188 1 1 1 14.4813 -11.3334 0 0 0 0
 189 1 1 1 14.4039 -11.5711 0 0 0 0
 190 1 1 1 14.2367 -11.3852 0 0 0 0
 191 1 1 1 14.0696 -11.1993 0 0 0 0
 192 1 1 1 13.9024 -11.0134 0 0 0 0
 193 1 1 1 13.7353 -10.8275 0 0 0 0
 194 1 1 1 13.8127 -10.5898 0 0 0 0
 195 1 1 1 13.8901 -10.352 0 0 0 0
 196 1 1 1 13.9676 -10.1143 0 0 0 0
 197 2 1 1 13.7144 -10.0845 0 0 0 0
 198 2 1 1 14.6989 -10.23 0 0 0 0
 199 2 1 1 14.7345 -11.3633 0 0 0 0
 200 2 1 1 13.75 -11.2177 0 0 0 0
 201 1 1 1 18.7645 -16.678 0 0 0 0
 202 1 1 1 18.6394 -16.4615 0 0 0 0
 203 1 1 1 18.5143 -16.2451 0 0 0 0
 204 1 1 1 18.3892 -16.0287 0 0 0 0
 205 1 1 1 18.2641 -15.8122 0 0 0 0
 206 1 1 1 18.3889 -15.5956 0 0 0 0
 207 1 1 1 18.5138 -15.3791 0 0 0 0
 208 1 1 1 18.6387 -15.1625 0 0 0 0
 209 1 1 1 18.7636 -14.9459 0 0 0 0
 210 1 1 1 18.8887 -15.1624 0 0 0 0
 211 1 1 1 19.0138 -15.3788 0 0 0 0
 212 1 1 1 19.1389 -15.5952 0 0 0 0
 213 1 1 1 19.2641 -15.8117 0 0 0 0
 214 1 1 1 19.1392 -16.0283 0 0 0 0
 215 1 1 1 19.0143 -16.2448 0 0 0 0
 216 1 1 1 18.8894 -16.4614 0 0 0 0
 217 2 1 1 19.131 -16.543 0 0 0 0
 218 2 1 1 18.1978 -16.1971 0 0 0 0
 219 2 1 1 18.3972 -15.0809 0 0 0 0
 220 2 1 1 19.3304 -15.4268 0 0 0 0
 221 1 1 1 -6.33174 16.7657 0 0 0 0
 222 1 1 1 -6.28911 16.5193 0 0 0 0
 223 1 1 1 -6.24649 16.273 0 0 0 0
 224 1 1 1 -6.20387 16.0267 0 0 0 0
 225 1 1 1 -6.16125 15.7803 0 0 0 0
 226 1 1 1 -6.35327 15.6202 0 0 0 0
 227 1 1 1 -6.5453 15.4602 0 0 0 0
 228 1 1 1 -6.73732 15.3001 0 0 0 0
 229 1 1 1 -6.92935 15.14 0 0 0 0
 230 1 1 1 -6.97197 15.3863 0 0 0 0
 231 1 1 1 -7.01459 15.6327 0 0 0 0
 232 1 1 1 -7.05721 15.879 0 0 0 0
 233 1 1 1 -7.09984 16.1254 0 0 0 0
 234 1 1 1 -6.90781 16.2854 0 0 0 0
 235 1 1 1 -6.71579 16.4455 0 0 0 0
 236 1 1 1 -6.52376 16.6056 0 0 0 0
 237 2 1 1 -6.72225 16.7656 0 0 0 0
 238 2 1 1 -5.96605 16.1186 0 0 0 0
 239 2 1 1 -6.53883 15.1401 0 0 0 0
 240 2 1 1 -7.29503 15.7871 0 0 0 0
 241 1 1 1 8.78838 14.3237 0 0 0 0
 242 1 1 1 8.88591 14.5539 0 0 0 0
 243 1 1 1 8.98344 14.7841 0 0 0 0
 244 1 1 1 9.08097 15.0143 0 0 0 0
 245 1 1 1 9.1785 15.2445 0 0 0 0
 246 1 1 1 9.42662 15.2751 0 0 0 0
 247 1 1 1 9.67474 15.3058 0 0 0 0
 248 1 1 1 9.92285 15.3364 0 0 0 0
 249 1 1 1 10.171 15.367 0 0 0 0
 250 1 1 1 10.0734 15.1368 0 0 0 0
 251 1 1 1 9.97591 14.9066 0 0 0 0
 252 1 1 1 9.87838 14.6765 0 0 0 0
 253 1 1 1 9.78085 14.4463 0 0 0 0
 254 1 1 1 9.53273 14.4156 0 0 0 0
 255 1 1 1 9.28461 14.385 0 0 0 0
 256 1 1 1 9.0365 14.3544 0 0 0 0
 257 2 1 1 9.11675 14.1124 0 0 0 0
 258 2 1 1 8.83128 15.0658 0 0 0 0
 259 2 1 1 9.8426 15.5784 0 0 0 0
 260 2 1 1 10.1281 14.625 0 0 0 0
 261 1 1 1 -0.0179394 -18.1201 0 0 0 0
 262 1 1 1 -0.206647 -17.9561 0 0 0 0
 263 1 1 1 -0.395354 -17.7921 0 0 0 0
 264 1 1 1 -0.584061 -17.6282 0 0 0 0
 265 1 1 1 -0.772769 -17.4642 0 0 0 0
 266 1 1 1 -0.725111 -17.2188 0 0 0 0
 267 1 1 1 -0.677454 -16.9733 0 0 0 0
 268 1 1 1 -0.629796 -16.7279 0 0 0 0
 269 1 1 1 -0.582139 -16.4825 0 0 0 0
 270 1 1 1 -0.393431 -16.6465 0 0 0 0
 271 1 1 1 -0.204724 -16.8105 0 0 0 0
 272 1 1 1 -0.0160167 -16.9745 0 0 0 0
 273 1 1 1 0.172691 -17.1384 0 0 0 0
 274 1 1 1 0.125033 -17.3839 0 0 0 0
 275 1 1 1 0.0773756 -17.6293 0 0 0 0
 276 1 1 1 0.0297181 -17.8747 0 0 0 0
 277 2 1 1 0.284665 -17.8733 0 0 0 0
 278 2 1 1 -0.7103 -17.8497 0 0 0 0
 279 2 1 1 -0.884743 -16.7294 0 0 0 0
 280 2 1 1 0.110222 -16.753 0 0 0 0
 281 1 1 1 3.89162 -16.343 0 0 0 0
 282 1 1 1 3.97481 -16.5788 0 0 0 0
 283 1 1 1 4.058 -16.8145 0 0 0 0
 284 1 1 1 4.14118 -17.0503 0 0 0 0
 285 1 1 1 4.22437 -17.286 0 0 0 0
 286 1 1 1 4.0618 -17.4759 0 0 0 0
 287 1 1 1 3.89922 -17.6659 0 0 0 0
 288 1 1 1 3.73665 -17.8558 0 0 0 0
 289 1 1 1 3.57407 -18.0457 0 0 0 0
 290 1 1 1 3.49088 -17.8099 0 0 0 0
 291 1 1 1 3.4077 -17.5742 0 0 0 0
 292 1 1 1 3.32451 -17.3384 0 0 0 0
 293 1 1 1 3.24132 -17.1027 0 0 0 0
 294 1 1 1 3.4039 -16.9128 0 0 0 0
 295 1 1 1 3.56647 -16.7228 0 0 0 0
 296 1 1 1 3.72905 -16.5329 0 0 0 0
 297 2 1 1 3.50661 -16.4083 0 0 0 0
 298 2 1 1 4.3603 -16.9199 0 0 0 0
 299 2 1 1 3.95908 -17.9804 0 0 0 0
 300 2 1 1 3.10539 -17.4688 0 0 0 0
 301 1 1 1 17.3269 -4.84218 0 0 0 0
 302 1 1 1 17.0773 -4.85712 0 0 0 0
 303 1 1 1 16.8278 -4.87207 0 0 0 0
 304 1 1 1 16.5782 -4.88701 0 0 0 0
 305 1 1 1 16.3287 -4.90195 0 0 0 0
 306 1 1 1 16.191 -4.6933 0 0 0 0
 307 1 1 1 16.0532 -4.48465 0 0 0 0
 308 1 1 1 15.9155 -4.276 0 0 0 0
 309 1 1 1 15.7778 -4.06735 0 0 0 0
 310 1 1 1 16.0274 -4.05241 0 0 0 0
 311 1 1 1 16.2769 -4.03747 0 0 0 0
 312 1 1 1 16.5265 -4.02253 0 0 0 0
 313 1 1 1 16.776 -4.00759 0 0 0 0
 314 1 1 1 16.9137 -4.21624 0 0 0 0
 315 1 1 1 17.0515 -4.42489 0 0 0 0
 316 1 1 1 17.1892 -4.63353 0 0 0 0
 317 2 1 1 17.3703 -4.45409 0 0 0 0
 318 2 1 1 16.6431 -5.13357 0 0 0 0
 319 2 1 1 15.7344 -4.45545 0 0 0 0
 320 2 1 1 16.4616 -3.77596 0 0 0 0
 321 1 1 1 5.61952 -2.93366 0 0 0 0
 322 1 1 1 5.60437 -2.68412 0 0 0 0
 323 1 1 1 5.58921 -2.43458 0 0 0 0
 324 1 1 1 5.57406 -2.18504 0 0 0 0
 325 1 1 1 5.5589 -1.9355 0 0 0 0
 326 1 1 1 5.76743 -1.7976 0 0 0 0
 327 1 1 1 5.97596 -1.65971 0 0 0 0
 328 1 1 1 6.18449 -1.52181 0 0 0 0
 329 1 1 1 6.39302 -1.38392 0 0 0 0
 330 1 1 1 6.40818 -1.63346 0 0 0 0
 331 1 1 1 6.42333 -1.883 0 0 0 0
 332 1 1 1 6.43849 -2.13254 0 0 0 0
 333 1 1 1 6.45364 -2.38208 0 0 0 0
 334 1 1 1 6.24511 -2.51997 0 0 0 0
 335 1 1 1 6.03658 -2.65787 0 0 0 0
 336 1 1 1 5.82805 -2.79576 0 0 0 0
 337 2 1 1 6.00765 -2.97671 0 0 0 0
 338 2 1 1 5.32755 -2.2501 0 0 0 0
 339 2 1 1 6.00489 -1.34086 0 0 0 0
 340 2 1 1 6.685 -2.06747 0 0 0 0
 341 1 1 1 -17.1196 -6.83108 0 0 0 0
 342 1 1 1 -17.1655 -7.07683 0 0 0 0
 343 1 1 1 -17.2114 -7.32258 0 0 0 0
 344 1 1 1 -17.2573 -7.56833 0 0 0 0
 345 1 1 1 -17.3032 -7.81408 0 0 0 0
 346 1 1 1 -17.539 -7.89719 0 0 0 0
 347 1 1 1 -17.7748 -7.9803 0 0 0 0
 348 1 1 1 -18.0105 -8.06341 0 0 0 0
 349 1 1 1 -18.2463 -8.14652 0 0 0 0
 350 1 1 1 -18.2004 -7.90077 0 0 0 0
 351 1 1 1 -18.1545 -7.65503 0 0 0 0
 352 1 1 1 -18.1086 -7.40928 0 0 0 0
 353 1 1 1 -18.0627 -7.16353 0 0 0 0
 354 1 1 1 -17.8269 -7.08042 0 0 0 0
 355 1 1 1 -17.5911 -6.99731 0 0 0 0
 356 1 1 1 -17.3553 -6.9142 0 0 0 0
 357 2 1 1 -17.4856 -6.69504 0 0 0 0
 358 2 1 1 -17.0024 -7.56509 0 0 0 0
 359 2 1 1 -17.8803 -8.28257 0 0 0 0
 360 2 1 1 -18.3635 -7.41251 0 0 0 0
 361 1 1 1 -16.6564 4.54779 0 0 0 0
 362 1 1 1 -16.7977 4.3416 0 0 0 0
 363 1 1 1 -16.9391 4.1354 0 0 0 0
 364 1 1 1 -17.0805 3.92921 0 0 0 0
 365 1 1 1 -17.2218 3.72302 0 0 0 0
 366 1 1 1 -17.4711 3.74235 0 0 0 0
 367 1 1 1 -17.7203 3.76168 0 0 0 0
 368 1 1 1 -17.9696 3.781 0 0 0 0
 369 1 1 1 -18.2188 3.80033 0 0 0 0
 370 1 1 1 -18.0775 4.00653 0 0 0 0
 371 1 1 1 -17.9361 4.21272 0 0 0 0
 372 1 1 1 -17.7947 4.41891 0 0 0 0
 373 1 1 1 -17.6534 4.62511 0 0 0 0
 374 1 1 1 -17.4041 4.60578 0 0 0 0
 375 1 1 1 -17.1549 4.58645 0 0 0 0
 376 1 1 1 -16.9056 4.56712 0 0 0 0
 377 2 1 1 -16.9361 4.82024 0 0 0 0
 378 2 1 1 -16.846 3.82908 0 0 0 0
 379 2 1 1 -17.9391 3.52789 0 0 0 0
 380 2 1 1 -18.0292 4.51904 0 0 0 0
 381 1 1 1 -9.29565 8.27471 0 0 0 0
 382 1 1 1 -9.29635 8.5247 0 0 0 0
 383 1 1 1 -9.29705 8.7747 0 0 0 0
 384 1 1 1 -9.29775 9.0247 0 0 0 0
 385 1 1 1 -9.29845 9.2747 0 0 0 0
 386 1 1 1 -9.0823 9.40031 0 0 0 0
 387 1 1 1 -8.86614 9.52592 0 0 0 0
 388 1 1 1 -8.64999 9.65152 0 0 0 0
 389 1 1 1 -8.43383 9.77713 0 0 0 0
 390 1 1 1 -8.43313 9.52713 0 0 0 0
 391 1 1 1 -8.43243 9.27713 0 0 0 0
 392 1 1 1 -8.43173 9.02713 0 0 0 0
 393 1 1 1 -8.43103 8.77713 0 0 0 0
 394 1 1 1 -8.64718 8.65153 0 0 0 0
 395 1 1 1 -8.86334 8.52592 0 0 0 0
 396 1 1 1 -9.07949 8.40031 0 0 0 0
 397 2 1 1 -8.91065 8.20928 0 0 0 0
 398 2 1 1 -9.54761 8.974 0 0 0 0
 399 2 1 1 -8.81882 9.84256 0 0 0 0
 400 2 1 1 -8.18187 9.07783 0 0 0 0
 401 1 1 1 13.5302 5.9262 0 0 0 0
 402 1 1 1 13.5145 5.6767 0 0 0 0
 403 1 1 1 13.4988 5.42719 0 0 0 0
 404 1 1 1 13.4831 5.17768 0 0 0 0
 405 1 1 1 13.4674 4.92818 0 0 0 0
 406 1 1 1 13.2435 4.81701 0 0 0 0
 407 1 1 1 13.0195 4.70585 0 0 0 0
 408 1 1 1 12.7956 4.59468 0 0 0 0
 409 1 1 1 12.5717 4.48352 0 0 0 0
 410 1 1 1 12.5874 4.73303 0 0 0 0
 411 1 1 1 12.6031 4.98253 0 0 0 0
 412 1 1 1 12.6188 5.23204 0 0 0 0
 413 1 1 1 12.6345 5.48155 0 0 0 0
 414 1 1 1 12.8584 5.59271 0 0 0 0
 415 1 1 1 13.0823 5.70388 0 0 0 0
 416 1 1 1 13.3062 5.81504 0 0 0 0
 417 2 1 1 13.1503 6.01673 0 0 0 0
 418 2 1 1 13.7357 5.21189 0 0 0 0
 419 2 1 1 12.9516 4.39299 0 0 0 0
 420 2 1 1 12.3661 5.19783 0 0 0 0
 421 1 1 1 -17.0639 8.77665 0 0 0 0
 422 1 1 1 -16.9245 8.98415 0 0 0 0
 423 1 1 1 -16.7851 9.19165 0 0 0 0
 424 1 1 1 -16.6456 9.39915 0 0 0 0
 425 1 1 1 -16.5062 9.60665 0 0 0 0
 426 1 1 1 -16.2568 9.58964 0 0 0 0
 427 1 1 1 -16.0073 9.57263 0 0 0 0
 428 1 1 1 -15.7579 9.55563 0 0 0 0
 429 1 1 1 -15.5085 9.53862 0 0 0 0
 430 1 1 1 -15.6479 9.33112 0 0 0 0
 431 1 1 1 -15.7874 9.12362 0 0 0 0
 432 1 1 1 -15.9268 8.91612 0 0 0 0
 433 1 1 1 -16.0663 8.70862 0 0 0 0
 434 1 1 1 -16.3157 8.72562 0 0 0 0
 435 1 1 1 -16.5651 8.74263 0 0 0 0
 436 1 1 1 -16.8145 8.75964 0 0 0 0
 437 2 1 1 -16.7816 8.50682 0 0 0 0
 438 2 1 1 -16.881 9.49709 0 0 0 0
 439 2 1 1 -15.7908 9.80845 0 0 0 0
 440 2 1 1 -15.6914 8.81818 0 0 0 0
 441 1 1 1 10.8438 12.2079 0 0 0 0
 442 1 1 1 10.8853 11.9614 0 0 0 0
 443 1 1 1 10.9268 11.7149 0 0 0 0
 444 1 1 1 10.9682 11.4683 0 0 0 0
 445 1 1 1 11.0097 11.2218 0 0 0 0
 446 1 1 1 10.8169 11.0626 0 0 0 0
 447 1 1 1 10.6242 10.9034 0 0 0 0
 448 1 1 1 10.4314 10.7442 0 0 0 0
 449 1 1 1 10.2386 10.5851 0 0 0 0
 450 1 1 1 10.1972 10.8316 0 0 0 0
 451 1 1 1 10.1557 11.0781 0 0 0 0
 452 1 1 1 10.1142 11.3247 0 0 0 0
 453 1 1 1 10.0727 11.5712 0 0 0 0
 454 1 1 1 10.2655 11.7304 0 0 0 0
 455 1 1 1 10.4583 11.8896 0 0 0 0
 456 1 1 1 10.651 12.0488 0 0 0 0
 457 2 1 1 10.4533 12.2097 0 0 0 0
 458 2 1 1 11.2065 11.5591 0 0 0 0
 459 2 1 1 10.6291 10.5833 0 0 0 0
 460 2 1 1 9.87597 11.2339 0 0 0 0
 461 1 1 1 18.4796 5.12224 0 0 0 0
 462 1 1 1 18.7195 5.05161 0 0 0 0
 463 1 1 1 18.9593 4.98098 0 0 0 0
 464 1 1 1 19.1991 4.91034 0 0 0 0
 465 1 1 1 -19.2392 4.83971 0 1 0 0
 466 1 1 1 -19.1805 4.59671 0 1 0 0
 467 1 1 1 -19.1217 4.35371 0 1 0 0
 468 1 1 1 -19.063 4.11071 0 1 0 0
 469 1 1 1 -19.0043 3.8677 0 1 0 0
 470 1 1 1 -19.2441 3.93834 0 1 0 0
 471 1 1 1 19.1942 4.00897 0 0 0 0
 472 1 1 1 18.9544 4.0796 0 0 0 0
 473 1 1 1 18.7146 4.15023 0 0 0 0
 474 1 1 1 18.6559 4.39324 0 0 0 0
 475 1 1 1 18.5971 4.63624 0 0 0 0
 476 1 1 1 18.5384 4.87924 0 0 0 0
 477 2 1 1 18.3071 4.7719 0 0 0 0
 478 2 1 1 19.2218 5.16429 0 0 0 0
 479 2 1 1 -18.8317 4.21804 0 1 0 0
 480 2 1 1 18.9317 3.82566 0 0 0 0
 481 1 1 1 13.562 -9.14404 0 0 0 0
 482 1 1 1 13.4136 -9.34527 0 0 0 0
 483 1 1 1 13.2653 -9.54649 0 0 0 0
 484 1 1 1 13.1169 -9.74772 0 0 0 0
 485 1 1 1 12.9686 -9.94895 0 0 0 0
 486 1 1 1 12.7202 -9.92109 0 0 0 0
 487 1 1 1 12.4717 -9.89323 0 0 0 0
 488 1 1 1 12.2233 -9.86537 0 0 0 0
 489 1 1 1 11.9748 -9.83751 0 0 0 0
 490 1 1 1 12.1232 -9.63628 0 0 0 0
 491 1 1 1 12.2715 -9.43505 0 0 0 0
 492 1 1 1 12.4199 -9.23383 0 0 0 0
 493 1 1 1 12.5682 -9.0326 0 0 0 0
 494 1 1 1 12.8167 -9.06046 0 0 0 0
 495 1 1 1 13.0651 -9.08832 0 0 0 0
 496 1 1 1 13.3136 -9.11618 0 0 0 0
 497 2 1 1 13.2917 -8.86216 0 0 0 0
 498 2 1 1 13.3478 -9.85583 0 0 0 0
 499 2 1 1 12.2451 -10.1194 0 0 0 0
 500 2 1 1 12.189 -9.12572 0 0 0 0
 501 1 1 1 4.84231 -9.94204 0 0 0 0
 502 1 1 1 4.61004 -9.84958 0 0 0 0
 503 1 1 1 4.37776 -9.75711 0 0 0 0
 504 1 1 1 4.14549 -9.66465 0 0 0 0
 505 1 1 1 3.91322 -9.57218 0 0 0 0
 506 1 1 1 3.87716 -9.32479 0 0 0 0
 507 1 1 1 3.8411 -9.07741 0 0 0 0
 508 1 1 1 3.80505 -8.83002 0 0 0 0
 509 1 1 1 3.76899 -8.58264 0 0 0 0
 510 1 1 1 4.00126 -8.6751 0 0 0 0
 511 1 1 1 4.23353 -8.76757 0 0 0 0
 512 1 1 1 4.4658 -8.86003 0 0 0 0
 513 1 1 1 4.69807 -8.9525 0 0 0 0
 514 1 1 1 4.73413 -9.19989 0 0 0 0
 515 1 1 1 4.77019 -9.44727 0 0 0 0
 516 1 1 1 4.80625 -9.69466 0 0 0 0
 517 2 1 1 5.04642 -9.60912 0 0 0 0
 518 2 1 1 4.09948 -9.91541 0 0 0 0
 519 2 1 1 3.56487 -8.91556 0 0 0 0
 520 2 1 1 4.51181 -8.60927 0 0 0 0
 521 1 1 1 3.04565 -1.86424 0 0 0 0
 522 1 1 1 3.15397 -1.63892 0 0 0 0
 523 1 1 1 3.26229 -1.4136 0 0 0 0
 524 1 1 1 3.3706 -1.18829 0 0 0 0
 525 1 1 1 3.47892 -0.962973 0 0 0 0
 526 1 1 1 3.72821 -0.944121 0 0 0 0
 527 1 1 1 3.9775 -0.925269 0 0 0 0
 528 1 1 1 4.22679 -0.906417 0 0 0 0
 529 1 1 1 4.47608 -0.887566 0 0 0 0
 530 1 1 1 4.36776 -1.11288 0 0 0 0
 531 1 1 1 4.25944 -1.3382 0 0 0 0
 532 1 1 1 4.15112 -1.56351 0 0 0 0
 533 1 1 1 4.0428 -1.78883 0 0 0 0
 534 1 1 1 3.79351 -1.80768 0 0 0 0
 535 1 1 1 3.54423 -1.82653 0 0 0 0
 536 1 1 1 3.29494 -1.84538 0 0 0 0
 537 2 1 1 3.36365 -2.0909 0 0 0 0
 538 2 1 1 3.12362 -1.12503 0 0 0 0
 539 2 1 1 4.15808 -0.6609 0 0 0 0
 540 2 1 1 4.3981 -1.62677 0 0 0 0
 541 1 1 1 -5.46376 8.21168 0 0 0 0
 542 1 1 1 -5.38627 7.97399 0 0 0 0
 543 1 1 1 -5.30877 7.73631 0 0 0 0
 544 1 1 1 -5.23128 7.49862 0 0 0 0
 545 1 1 1 -5.15379 7.26093 0 0 0 0
 546 1 1 1 -5.32089 7.07498 0 0 0 0
 547 1 1 1 -5.48798 6.88903 0 0 0 0
 548 1 1 1 -5.65508 6.70307 0 0 0 0
 549 1 1 1 -5.82218 6.51712 0 0 0 0
 550 1 1 1 -5.89967 6.75481 0 0 0 0
 551 1 1 1 -5.97716 6.99249 0 0 0 0
 552 1 1 1 -6.05465 7.23018 0 0 0 0
 553 1 1 1 -6.13215 7.46787 0 0 0 0
 554 1 1 1 -5.96505 7.65382 0 0 0 0
 555 1 1 1 -5.79795 7.83977 0 0 0 0
 556 1 1 1 -5.63086 8.02573 0 0 0 0
 557 2 1 1 -5.85023 8.15563 0 0 0 0
 558 2 1 1 -5.00909 7.62365 0 0 0 0
 559 2 1 1 -5.43571 6.57317 0 0 0 0
 560 2 1 1 -6.27684 7.10515 0 0 0 0
 561 1 1 1 14.8861 -5.36838 0 0 0 0
 562 1 1 1 15.0792 -5.52708 0 0 0 0
 563 1 1 1 15.2724 -5.68579 0 0 0 0
 564 1 1 1 15.4656 -5.84449 0 0 0 0
 565 1 1 1 15.6587 -6.00319 0 0 0 0
 566 1 1 1 15.6179 -6.24983 0 0 0 0
 567 1 1 1 15.577 -6.49647 0 0 0 0
 568 1 1 1 15.5361 -6.74311 0 0 0 0
 569 1 1 1 15.4953 -6.98975 0 0 0 0
 570 1 1 1 15.3021 -6.83104 0 0 0 0
 571 1 1 1 15.109 -6.67234 0 0 0 0
 572 1 1 1 14.9158 -6.51364 0 0 0 0
 573 1 1 1 14.7226 -6.35494 0 0 0 0
 574 1 1 1 14.7635 -6.1083 0 0 0 0
 575 1 1 1 14.8043 -5.86166 0 0 0 0
 576 1 1 1 14.8452 -5.61502 0 0 0 0
 577 2 1 1 14.5904 -5.62349 0 0 0 0
 578 2 1 1 15.5856 -5.61958 0 0 0 0
 579 2 1 1 15.791 -6.73464 0 0 0 0
 580 2 1 1 14.7957 -6.73855 0 0 0 0
 581 1 1 1 8.97727 -2.06917 0 0 0 0
 582 1 1 1 9.16231 -2.23727 0 0 0 0
 583 1 1 1 9.34736 -2.40537 0 0 0 0
 584 1 1 1 9.53241 -2.57347 0 0 0 0
 585 1 1 1 9.71745 -2.74157 0 0 0 0
 586 1 1 1 9.6644 -2.98588 0 0 0 0
 587 1 1 1 9.61134 -3.23018 0 0 0 0
 588 1 1 1 9.55829 -3.47449 0 0 0 0
 589 1 1 1 9.50523 -3.71879 0 0 0 0
 590 1 1 1 9.32019 -3.55069 0 0 0 0
 591 1 1 1 9.13514 -3.38259 0 0 0 0
 592 1 1 1 8.95009 -3.21449 0 0 0 0
 593 1 1 1 8.76504 -3.04639 0 0 0 0
 594 1 1 1 8.8181 -2.80209 0 0 0 0
 595 1 1 1 8.87116 -2.55778 0 0 0 0
 596 1 1 1 8.92421 -2.31348 0 0 0 0
 597 2 1 1 8.66929 -2.30928 0 0 0 0
 598 2 1 1 9.6635 -2.35481 0 0 0 0
 599 2 1 1 9.8132 -3.47868 0 0 0 0
 600 2 1 1 8.819 -3.43316 0 0 0 0
 601 1 1 1 11.2265 -2.66209 0 0 0 0
 602 1 1 1 11.4502 -2.77366 0 0 0 0
 603 1 1 1 11.6739 -2.88523 0 0 0 0
 604 1 1 1 11.8976 -2.9968 0 0 0 0
 605 1 1 1 12.1214 -3.10837 0 0 0 0
 606 1 1 1 12.1366 -3.35791 0 0 0 0
 607 1 1 1 12.1518 -3.60744 0 0 0 0
 608 1 1 1 12.1671 -3.85698 0 0 0 0
 609 1 1 1 12.1823 -4.10651 0 0 0 0
 610 1 1 1 11.9586 -3.99494 0 0 0 0
 611 1 1 1 11.7349 -3.88337 0 0 0 0
 612 1 1 1 11.5111 -3.7718 0 0 0 0
 613 1 1 1 11.2874 -3.66023 0 0 0 0
 614 1 1 1 11.2722 -3.41069 0 0 0 0
 615 1 1 1 11.2569 -3.16116 0 0 0 0
 616 1 1 1 11.2417 -2.91162 0 0 0 0
 617 2 1 1 10.9952 -2.97677 0 0 0 0
 618 2 1 1 11.9645 -2.75077 0 0 0 0
 619 2 1 1 12.4136 -3.79183 0 0 0 0
 620 2 1 1 11.4443 -4.01784 0 0 0 0
 621 1 1 1 15.2472 -12.884 0 0 0 0
 622 1 1 1 15.0018 -12.932 0 0 0 0
 623 1 1 1 14.7564 -12.9799 0 0 0 0
 624 1 1 1 14.5111 -13.0279 0 0 0 0
 625 1 1 1 14.2657 -13.0759 0 0 0 0
 626 1 1 1 14.1015 -12.8874 0 0 0 0
 627 1 1 1 13.9373 -12.6989 0 0 0 0
 628 1 1 1 13.7731 -12.5104 0 0 0 0
 629 1 1 1 13.6088 -12.3219 0 0 0 0
 630 1 1 1 13.8542 -12.2739 0 0 0 0
 631 1 1 1 14.0996 -12.2259 0 0 0 0
 632 1 1 1 14.3449 -12.178 0 0 0 0
 633 1 1 1 14.5903 -12.13 0 0 0 0
 634 1 1 1 14.7545 -12.3185 0 0 0 0
 635 1 1 1 14.9187 -12.507 0 0 0 0
 636 1 1 1 15.0829 -12.6955 0 0 0 0
 637 2 1 1 15.2386 -12.4936 0 0 0 0
 638 2 1 1 14.6081 -13.2637 0 0 0 0
 639 2 1 1 13.6174 -12.7123 0 0 0 0
 640 2 1 1 14.2479 -11.9422 0 0 0 0
 641 1 1 1 4.44338 -2.49418 0 0 0 0
 642 1 1 1 4.39368 -2.73919 0 0 0 0
 643 1 1 1 4.34398 -2.9842 0 0 0 0
 644 1 1 1 4.29428 -3.22921 0 0 0 0
 645 1 1 1 4.24458 -3.47423 0 0 0 0
 646 1 1 1 4.00755 -3.55369 0 0 0 0
 647 1 1 1 3.77051 -3.63316 0 0 0 0
 648 1 1 1 3.53348 -3.71262 0 0 0 0
 649 1 1 1 3.29645 -3.79209 0 0 0 0
 650 1 1 1 3.34614 -3.54708 0 0 0 0
 651 1 1 1 3.39584 -3.30207 0 0 0 0
 652 1 1 1 3.44554 -3.05706 0 0 0 0
 653 1 1 1 3.49524 -2.81205 0 0 0 0
 654 1 1 1 3.73227 -2.73258 0 0 0 0
 655 1 1 1 3.96931 -2.65311 0 0 0 0
 656 1 1 1 4.20634 -2.57365 0 0 0 0
 657 2 1 1 4.07947 -2.35251 0 0 0 0
 658 2 1 1 4.54923 -3.22991 0 0 0 0
 659 2 1 1 3.66035 -3.93376 0 0 0 0
 660 2 1 1 3.19059 -3.05636 0 0 0 0
 661 1 1 1 14.6064 -4.90386 0 0 0 0
 662 1 1 1 14.8548 -4.87509 0 0 0 0
 663 1 1 1 15.1031 -4.84632 0 0 0 0
 664 1 1 1 15.3515 -4.81755 0 0 0 0
 665 1 1 1 15.5998 -4.78878 0 0 0 0
 666 1 1 1 15.7489 -4.98947 0 0 0 0
 667 1 1 1 15.898 -5.19015 0 0 0 0
 668 1 1 1 16.0471 -5.39083 0 0 0 0
 669 1 1 1 16.1961 -5.59151 0 0 0 0
 670 1 1 1 15.9478 -5.62028 0 0 0 0
 671 1 1 1 15.6995 -5.64905 0 0 0 0
 672 1 1 1 15.4511 -5.67782 0 0 0 0
 673 1 1 1 15.2028 -5.70659 0 0 0 0
 674 1 1 1 15.0537 -5.50591 0 0 0 0
 675 1 1 1 14.9046 -5.30523 0 0 0 0
 676 1 1 1 14.7555 -5.10455 0 0 0 0
 677 2 1 1 14.5847 -5.29377 0 0 0 0
 678 2 1 1 15.273 -4.57497 0 0 0 0
 679 2 1 1 16.2179 -5.20161 0 0 0 0
 680 2 1 1 15.5296 -5.92041 0 0 0 0
 681 1 1 1 -0.392431 -12.7247 0 0 0 0
 682 1 1 1 -0.142536 -12.7175 0 0 0 0
 683 1 1 1 0.107359 -12.7103 0 0 0 0
 684 1 1 1 0.357254 -12.703 0 0 0 0
 685 1 1 1 0.607149 -12.6958 0 0 0 0
 686 1 1 1 0.738367 -12.9086 0 0 0 0
 687 1 1 1 0.869585 -13.1214 0 0 0 0
 688 1 1 1 1.0008 -13.3342 0 0 0 0
 689 1 1 1 1.13202 -13.547 0 0 0 0
 690 1 1 1 0.882126 -13.5542 0 0 0 0
 691 1 1 1 0.632231 -13.5614 0 0 0 0
 692 1 1 1 0.382336 -13.5687 0 0 0 0
 693 1 1 1 0.132441 -13.5759 0 0 0 0
 694 1 1 1 0.00122261 -13.3631 0 0 0 0
 695 1 1 1 -0.129995 -13.1503 0 0 0 0
 696 1 1 1 -0.261213 -12.9375 0 0 0 0
 697 2 1 1 -0.447765 -13.1113 0 0 0 0
 698 2 1 1 0.300035 -12.4546 0 0 0 0
 699 2 1 1 1.18735 -13.1604 0 0 0 0
 700 2 1 1 0.439555 -13.8171 0 0 0 0
 701 1 1 1 -1.07998 12.813 0 0 0 0
 702 1 1 1 -0.88749 12.6535 0 0 0 0
 703 1 1 1 -0.694999 12.494 0 0 0 0
 704 1 1 1 -0.502508 12.3344 0 0 0 0
 705 1 1 1 -0.310017 12.1749 0 0 0 0
 706 1 1 1 -0.351921 11.9284 0 0 0 0
 707 1 1 1 -0.393826 11.682 0 0 0 0
 708 1 1 1 -0.43573 11.4355 0 0 0 0
 709 1 1 1 -0.477634 11.1891 0 0 0 0
 710 1 1 1 -0.670125 11.3486 0 0 0 0
 711 1 1 1 -0.862617 11.5081 0 0 0 0
 712 1 1 1 -1.05511 11.6676 0 0 0 0
 713 1 1 1 -1.2476 11.8271 0 0 0 0
 714 1 1 1 -1.20569 12.0736 0 0 0 0
 715 1 1 1 -1.16379 12.3201 0 0 0 0
 716 1 1 1 -1.12189 12.5665 0 0 0 0
 717 2 1 1 -1.37673 12.5591 0 0 0 0
 718 2 1 1 -0.381485 12.5588 0 0 0 0
 719 2 1 1 -0.180886 11.4429 0 0 0 0
 720 2 1 1 -1.17613 11.4432 0 0 0 0
 721 1 1 1 2.44913 7.54808 0 0 0 0
 722 1 1 1 2.48814 7.30114 0 0 0 0
 723 1 1 1 2.52715 7.0542 0 0 0 0
 724 1 1 1 2.56616 6.80727 0 0 0 0
 725 1 1 1 2.60517 6.56033 0 0 0 0
 726 1 1 1 2.41081 6.40308 0 0 0 0
 727 1 1 1 2.21646 6.24583 0 0 0 0
 728 1 1 1 2.02211 6.08857 0 0 0 0
 729 1 1 1 1.82776 5.93132 0 0 0 0
 730 1 1 1 1.78876 6.17826 0 0 0 0
 731 1 1 1 1.74975 6.4252 0 0 0 0
 732 1 1 1 1.71074 6.67214 0 0 0 0
 733 1 1 1 1.67173 6.91907 0 0 0 0
 734 1 1 1 1.86608 7.07633 0 0 0 0
 735 1 1 1 2.06043 7.23358 0 0 0 0
 736 1 1 1 2.25478 7.39083 0 0 0 0
 737 2 1 1 2.05866 7.55373 0 0 0 0
 738 2 1 1 2.80529 6.89566 0 0 0 0
 739 2 1 1 2.21824 5.92567 0 0 0 0
 740 2 1 1 1.4716 6.58374 0 0 0 0
 741 1 1 1 -5.19167 -4.13094 0 0 0 0
 742 1 1 1 -5.38061 -4.29465 0 0 0 0
 743 1 1 1 -5.56955 -4.45836 0 0 0 0
 744 1 1 1 -5.75849 -4.62208 0 0 0 0
 745 1 1 1 -5.94743 -4.78579 0 0 0 0
 746 1 1 1 -6.18368 -4.70402 0 0 0 0
 747 1 1 1 -6.41993 -4.62225 0 0 0 0
 748 1 1 1 -6.65618 -4.54048 0 0 0 0
 749 1 1 1 -6.89243 -4.45871 0 0 0 0
 750 1 1 1 -6.70349 -4.29499 0 0 0 0
 751 1 1 1 -6.51455 -4.13128 0 0 0 0
 752 1 1 1 -6.32561 -3.96757 0 0 0 0
 753 1 1 1 -6.13667 -3.80386 0 0 0 0
 754 1 1 1 -5.90042 -3.88563 0 0 0 0
 755 1 1 1 -5.66417 -3.9674 0 0 0 0
 756 1 1 1 -5.42792 -4.04917 0 0 0 0
 757 2 1 1 -5.3934 -3.79657 0 0 0 0
 758 2 1 1 -5.55699 -4.77827 0 0 0 0
 759 2 1 1 -6.6907 -4.79308 0 0 0 0
 760 2 1 1 -6.52711 -3.81137 0 0 0 0
 761 1 1 1 11.4572 10.6966 0 0 0 0
 762 1 1 1 11.5972 10.9037 0 0 0 0
 763 1 1 1 11.7372 11.1108 0 0 0 0
 764 1 1 1 11.8771 11.318 0 0 0 0
 765 1 1 1 12.0171 11.5251 0 0 0 0
 766 1 1 1 12.2665 11.5075 0 0 0 0
 767 1 1 1 12.5159 11.4898 0 0 0 0
 768 1 1 1 12.7652 11.4721 0 0 0 0
 769 1 1 1 13.0146 11.4545 0 0 0 0
 770 1 1 1 12.8746 11.2474 0 0 0 0
 771 1 1 1 12.7347 11.0402 0 0 0 0
 772 1 1 1 12.5947 10.8331 0 0 0 0
 773 1 1 1 12.4547 10.6259 0 0 0 0
 774 1 1 1 12.2053 10.6436 0 0 0 0
 775 1 1 1 11.9559 10.6612 0 0 0 0
 776 1 1 1 11.7066 10.6789 0 0 0 0
 777 2 1 1 11.7388 10.426 0 0 0 0
 778 2 1 1 11.642 11.4165 0 0 0 0
 779 2 1 1 12.733 11.7251 0 0 0 0
 780 2 1 1 12.8298 10.7345 0 0 0 0
 781 1 1 1 0.82314 -15.1794 0 0 0 0
 782 1 1 1 1.06538 -15.2412 0 0 0 0
 783 1 1 1 1.30762 -15.303 0 0 0 0
 784 1 1 1 1.54987 -15.3648 0 0 0 0
 785 1 1 1 1.79211 -15.4266 0 0 0 0
 786 1 1 1 1.85971 -15.6673 0 0 0 0
 787 1 1 1 1.92732 -15.908 0 0 0 0
 788 1 1 1 1.99492 -16.1487 0 0 0 0
 789 1 1 1 2.06253 -16.3894 0 0 0 0
 790 1 1 1 1.82028 -16.3276 0 0 0 0
 791 1 1 1 1.57804 -16.2658 0 0 0 0
 792 1 1 1 1.3358 -16.204 0 0 0 0
 793 1 1 1 1.09356 -16.1422 0 0 0 0
 794 1 1 1 1.02595 -15.9015 0 0 0 0
 795 1 1 1 0.958349 -15.6608 0 0 0 0
 796 1 1 1 0.890744 -15.4201 0 0 0 0
 797 2 1 1 0.663579 -15.5359 0 0 0 0
 798 2 1 1 1.56321 -15.1102 0 0 0 0
 799 2 1 1 2.22209 -16.0329 0 0 0 0
 800 2 1 1 1.32245 -16.4586 0 0 0 0
 801 1 1 1 -13.5723 11.104 0 0 0 0
 802 1 1 1 -13.8126 11.035 0 0 0 0
 803 1 1 1 -14.0529 10.966 0 0 0 0
 804 1 1 1 -14.2932 10.897 0 0 0 0
 805 1 1 1 -14.5335 10.828 0 0 0 0
 806 1 1 1 -14.7134 11.0016 0 0 0 0
 807 1 1 1 -14.8933 11.1753 0 0 0 0
 808 1 1 1 -15.0732 11.3489 0 0 0 0
 809 1 1 1 -15.2531 11.5225 0 0 0 0
 810 1 1 1 -15.0128 11.5915 0 0 0 0
 811 1 1 1 -14.7725 11.6604 0 0 0 0
 812 1 1 1 -14.5322 11.7294 0 0 0 0
 813 1 1 1 -14.2919 11.7984 0 0 0 0
 814 1 1 1 -14.112 11.6248 0 0 0 0
 815 1 1 1 -13.9321 11.4512 0 0 0 0
 816 1 1 1 -13.7522 11.2776 0 0 0 0
 817 2 1 1 -13.6146 11.4922 0 0 0 0
 818 2 1 1 -14.1762 10.6705 0 0 0 0
 819 2 1 1 -15.2108 11.1343 0 0 0 0
 820 2 1 1 -14.6492 11.9559 0 0 0 0
 821 1 1 1 14.2077 -1.28207 0 0 0 0
 822 1 1 1 14.3181 -1.50635 0 0 0 0
 823 1 1 1 14.4286 -1.73063 0 0 0 0
 824 1 1 1 14.539 -1.95491 0 0 0 0
 825 1 1 1 14.6495 -2.17919 0 0 0 0
 826 1 1 1 14.5105 -2.38698 0 0 0 0
 827 1 1 1 14.3715 -2.59477 0 0 0 0
 828 1 1 1 14.2325 -2.80256 0 0 0 0
 829 1 1 1 14.0934 -3.01035 0 0 0 0
 830 1 1 1 13.983 -2.78607 0 0 0 0
 831 1 1 1 13.8726 -2.56179 0 0 0 0
 832 1 1 1 13.7621 -2.33751 0 0 0 0
 833 1 1 1 13.6517 -2.11323 0 0 0 0
 834 1 1 1 13.7907 -1.90544 0 0 0 0