# starting configuration for LAMMPS generated with a script available at
# https://github.com/Zirbo/OSPC_LAMMPS

             675 atoms
             450 bonds
             225 angles

               2 atom types
               1 bond types
               1 angle types

      0.00000000     23.71708245     xlo xhi
      0.00000000     23.71708245     ylo yhi
      0.00000000     5.00000000     zlo zhi

Masses
#  atomtype, mass
         1       2.0
         2       0.5

Atoms
#  atom-ID mol-ID atom-type charge    x               y               z
         1         1         1      -1.0      0.86880320      0.88795053      0.50000000
         2         1         2       0.5      1.23959458      0.89600904      0.83533388
         3         1         2       0.5      0.49801182      0.87989202      0.16466612
         4         2         1      -1.0      2.38340310      0.87479793      0.50000000
         5         2         2       0.5      2.77056256      1.00062103      0.79030346
         6         2         2       0.5      1.99624364      0.74897482      0.20969654
         7         3         1      -1.0      4.00609883      0.93152102      0.50000000
         8         3         2       0.5      4.31632655      1.05208805      0.87312512
         9         3         2       0.5      3.69587111      0.81095399      0.12687488
        10         4         1      -1.0      5.65025946      0.79576625      0.50000000
        11         4         2       0.5      6.04937749      0.97443798      0.74244837
        12         4         2       0.5      5.25114144      0.61709451      0.25755163
        13         5         1      -1.0      7.16613360      0.91083705      0.50000000
        14         5         2       0.5      7.43171199      1.10028545      0.87891611
        15         5         2       0.5      6.90055520      0.72138864      0.12108389
        16         6         1      -1.0      8.73399595      0.87099960      0.50000000
        17         6         2       0.5      8.82406033      1.33541693      0.66187944
        18         6         2       0.5      8.64393157      0.40658228      0.33812056
        19         7         1      -1.0     10.40027178      0.94495378      0.50000000
        20         7         2       0.5     10.64047931      1.07711725      0.91813055
        21         7         2       0.5     10.16006424      0.81279030      0.08186945
        22         8         1      -1.0     11.87864856      0.93747960      0.50000000
        23         8         2       0.5     12.23336039      1.22172903      0.70828294
        24         8         2       0.5     11.52393674      0.65323017      0.29171706
        25         9         1      -1.0     13.47794046      0.82142165      0.50000000
        26         9         2       0.5     13.71982226      0.88724905      0.93261987
        27         9         2       0.5     13.23605867      0.75559424      0.06738013
        28        10         1      -1.0     15.08059090      0.92068491      0.50000000
        29        10         2       0.5     15.34862500      1.16943668      0.84099894
        30        10         2       0.5     14.81255679      0.67193315      0.15900106
        31        11         1      -1.0     16.66369957      0.82045566      0.50000000
        32        11         2       0.5     17.04529299      0.87030680      0.81921988
        33        11         2       0.5     16.28210616      0.77060451      0.18078012
        34        12         1      -1.0     18.19767910      0.94161092      0.50000000
        35        12         2       0.5     18.60445725      1.08909225      0.75056096
        36        12         2       0.5     17.79090095      0.79412959      0.24943904
        37        13         1      -1.0     19.78245342      0.91490470      0.50000000
        38        13         2       0.5     20.15215356      1.21261952      0.65712319
        39        13         2       0.5     19.41275328      0.61718989      0.34287681
        40        14         1      -1.0     21.46757673      0.87884627      0.50000000
        41        14         2       0.5     21.65157221      0.99544448      0.95005613
        42        14         2       0.5     21.28358125      0.76224805      0.04994387
        43        15         1      -1.0     22.95797900      0.88649991      0.50000000
        44        15         2       0.5     23.42492863      1.05732670      0.55269008
        45        15         2       0.5     22.49102936      0.71567312      0.44730992
        46        16         1      -1.0      0.90669561      2.37436221      0.50000000
        47        16         2       0.5      1.02934093      2.44983455      0.97881317
        48        16         2       0.5      0.78405030      2.29888987      0.02118683
        49        17         1      -1.0      2.40954309      2.49582833      0.50000000
        50        17         2       0.5      2.45499245      2.89537264      0.79715097
        51        17         2       0.5      2.36409373      2.09628402      0.20284903
        52        18         1      -1.0      3.99057003      2.42304045      0.50000000
        53        18         2       0.5      4.10461298      2.80986744      0.79556570
        54        18         2       0.5      3.87652708      2.03621346      0.20443430
        55        19         1      -1.0      5.60171457      2.38917391      0.50000000
        56        19         2       0.5      5.65324769      2.75478766      0.83715118
        57        19         2       0.5      5.55018145      2.02356015      0.16284882
        58        20         1      -1.0      7.25033902      2.50376699      0.50000000
        59        20         2       0.5      7.56557477      2.50420108      0.88810596
        60        20         2       0.5      6.93510327      2.50333289      0.11189404
        61        21         1      -1.0      8.74434007      2.41142474      0.50000000
        62        21         2       0.5      9.16476753      2.57095390      0.71861197
        63        21         2       0.5      8.32391260      2.25189558      0.28138803
        64        22         1      -1.0     10.30001584      2.42417939      0.50000000
        65        22         2       0.5     10.57566096      2.58743914      0.88388282
        66        22         2       0.5     10.02437072      2.26091964      0.11611718
        67        23         1      -1.0     11.87443457      2.41764588      0.50000000
        68        23         2       0.5     12.31550583      2.63078176      0.60014610
        69        23         2       0.5     11.43336332      2.20451000      0.39985390
        70        24         1      -1.0     13.46079404      2.52157395      0.50000000
        71        24         2       0.5     13.50282030      2.87110875      0.85504819
        72        24         2       0.5     13.41876778      2.17203914      0.14495181
        73        25         1      -1.0     15.06465355      2.37761998      0.50000000
        74        25         2       0.5     15.15924720      2.70878133      0.86246959
        75        25         2       0.5     14.97005990      2.04645863      0.13753041
        76        26         1      -1.0     16.62169025      2.43196649      0.50000000
        77        26         2       0.5     16.81200881      2.79867420      0.78161019
        78        26         2       0.5     16.43137170      2.06525878      0.21838981
        79        27         1      -1.0     18.24485907      2.50056262      0.50000000
        80        27         2       0.5     18.45838371      2.95200942      0.52455639
        81        27         2       0.5     18.03133443      2.04911582      0.47544361
        82        28         1      -1.0     19.84708504      2.50398065      0.50000000
        83        28         2       0.5     20.19437343      2.86352781      0.51079875
        84        28         2       0.5     19.49979665      2.14443348      0.48920125
        85        29         1      -1.0     21.38938302      2.49655333      0.50000000
        86        29         2       0.5     21.72374780      2.85678883      0.59181819
        87        29         2       0.5     21.05501824      2.13631783      0.40818181
        88        30         1      -1.0     22.98330949      2.44438766      0.50000000
        89        30         2       0.5     23.14390006      2.66734522      0.91773269
        90        30         2       0.5     22.82271893      2.22143011      0.08226731
        91        31         1      -1.0      0.87105428      3.99007198      0.50000000
        92        31         2       0.5      1.05984163      4.14874703      0.93495007
        93        31         2       0.5      0.68226693      3.83139693      0.06504993
        94        32         1      -1.0      2.42220614      3.97809114      0.50000000
        95        32         2       0.5      2.52778992      4.22795419      0.92002443
        96        32         2       0.5      2.31662237      3.72822810      0.07997557
        97        33         1      -1.0      4.04253589      4.10560436      0.50000000
        98        33         2       0.5      4.09796011      4.24066664      0.97821160
        99        33         2       0.5      3.98711167      3.97054208      0.02178840
       100        34         1      -1.0      5.67064849      4.05687128      0.50000000
       101        34         2       0.5      5.83897330      4.32067262      0.88996873
       102        34         2       0.5      5.50232367      3.79306994      0.11003127
       103        35         1      -1.0      7.23020026      3.98092638      0.50000000
       104        35         2       0.5      7.53631161      4.37606745      0.51262455
       105        35         2       0.5      6.92408890      3.58578532      0.48737545
       106        36         1      -1.0      8.70100729      3.99574137      0.50000000
       107        36         2       0.5      8.75099376      4.40093758      0.78864750
       108        36         2       0.5      8.65102081      3.59054516      0.21135250
       109        37         1      -1.0     10.40467876      4.07197651      0.50000000
       110        37         2       0.5     10.51286714      4.20221296      0.97046120
       111        37         2       0.5     10.29649037      3.94174005      0.02953880
       112        38         1      -1.0     11.98718438      3.98727927      0.50000000
       113        38         2       0.5     12.46798258      4.12377185      0.51424331
       114        38         2       0.5     11.50638619      3.85078669      0.48575669
       115        39         1      -1.0     13.48074524      4.08881314      0.50000000
       116        39         2       0.5     13.84793594      4.42055103      0.57156085
       117        39         2       0.5     13.11355453      3.75707525      0.42843915
       118        40         1      -1.0     15.05124167      4.04224916      0.50000000
       119        40         2       0.5     15.43094068      4.04553452      0.82529659
       120        40         2       0.5     14.67154267      4.03896380      0.17470341
       121        41         1      -1.0     16.73965994      4.01695031      0.50000000
       122        41         2       0.5     17.11079361      4.34559096      0.56523128
       123        41         2       0.5     16.36852627      3.68830966      0.43476872
       124        42         1      -1.0     18.19676639      4.07873432      0.50000000
       125        42         2       0.5     18.67106557      4.15947559      0.63609236
       126        42         2       0.5     17.72246720      3.99799305      0.36390764
       127        43         1      -1.0     19.90684902      3.99760523      0.50000000
       128        43         2       0.5     20.05847953      4.35325131      0.81705530
       129        43         2       0.5     19.75521851      3.64195916      0.18294470
       130        44         1      -1.0     21.44165199      4.05775268      0.50000000
       131        44         2       0.5     21.81176577      4.36829161      0.62876864
       132        44         2       0.5     21.07153821      3.74721374      0.37123136
       133        45         1      -1.0     22.94820323      4.01671894      0.50000000
       134        45         2       0.5     23.01564738      4.30864466      0.90028822
       135        45         2       0.5     22.88075909      3.72479321      0.09971178
       136        46         1      -1.0      0.89698822      5.63917483      0.50000000
       137        46         2       0.5      1.16749617      5.78160025      0.89565193
       138        46         2       0.5      0.62648027      5.49674940      0.10434807
       139        47         1      -1.0      2.46884857      5.53399708      0.50000000
       140        47         2       0.5      2.74114558      5.90393010      0.69749406
       141        47         2       0.5      2.19655157      5.16406407      0.30250594
       142        48         1      -1.0      3.99272277      5.65494818      0.50000000
       143        48         2       0.5      4.25461578      5.84748513      0.87992311
       144        48         2       0.5      3.73082976      5.46241122      0.12007689
       145        49         1      -1.0      5.54262959      5.68540136      0.50000000
       146        49         2       0.5      5.89606357      6.03853784      0.51946915
       147        49         2       0.5      5.18919561      5.33226488      0.48053085
       148        50         1      -1.0      7.16383823      5.57036875      0.50000000
       149        50         2       0.5      7.41372462      5.78906457      0.87380333
       150        50         2       0.5      6.91395184      5.35167293      0.12619667
       151        51         1      -1.0      8.70909944      5.64646119      0.50000000
       152        51         2       0.5      9.12805920      5.91493257      0.54894729
       153        51         2       0.5      8.29013968      5.37798981      0.45105271
       154        52         1      -1.0     10.32812546      5.59016182      0.50000000
       155        52         2       0.5     10.56180810      5.82269537      0.87592628
       156        52         2       0.5     10.09444282      5.35762827      0.12407372
       157        53         1      -1.0     11.99179432      5.56565633      0.50000000
       158        53         2       0.5     12.47637968      5.57216756      0.62302291
       159        53         2       0.5     11.50720897      5.55914510      0.37697709
       160        54         1      -1.0     13.49661102      5.58606082      0.50000000
       161        54         2       0.5     13.61519797      5.81298987      0.92946518
       162        54         2       0.5     13.37802408      5.35913177      0.07053482
       163        55         1      -1.0     15.17774513      5.55110324      0.50000000
       164        55         2       0.5     15.59337494      5.63903155      0.76366735
       165        55         2       0.5     14.76211531      5.46317492      0.23633265
       166        56         1      -1.0     16.67089626      5.64568549      0.50000000
       167        56         2       0.5     16.83931083      5.83273115      0.93203062
       168        56         2       0.5     16.50248170      5.45863982      0.06796938
       169        57         1      -1.0     18.33410525      5.57064200      0.50000000
       170        57         2       0.5     18.43586856      5.80445202      0.93008964
       171        57         2       0.5     18.23234194      5.33683198      0.06991036
       172        58         1      -1.0     19.85128168      5.66572367      0.50000000
       173        58         2       0.5     20.18373582      5.82666151      0.83700632
       174        58         2       0.5     19.51882755      5.50478583      0.16299368
       175        59         1      -1.0     21.45602798      5.55560813      0.50000000
       176        59         2       0.5     21.75782278      5.82332813      0.79537418
       177        59         2       0.5     21.15423319      5.28788813      0.20462582
       178        60         1      -1.0     23.02601785      5.60422111      0.50000000
       179        60         2       0.5     23.52288850      5.62540790      0.55167862
       180        60         2       0.5     22.52914721      5.58303432      0.44832138
       181        61         1      -1.0      0.86618719      7.13544394      0.50000000
       182        61         2       0.5      1.13715490      7.55473341      0.52780014
       183        61         2       0.5      0.59521949      6.71615448      0.47219986
       184        62         1      -1.0      2.46266502      7.12117299      0.50000000
       185        62         2       0.5      2.80751019      7.22609703      0.84651516
       186        62         2       0.5      2.11781986      7.01624895      0.15348484
       187        63         1      -1.0      3.95827222      7.24316686      0.50000000
       188        63         2       0.5      4.31771029      7.56703725      0.62614375
       189        63         2       0.5      3.59883415      6.91929647      0.37385625
       190        64         1      -1.0      5.54204878      7.13132900      0.50000000
       191        64         2       0.5      5.78960586      7.16306211      0.93325339
       192        64         2       0.5      5.29449169      7.09959589      0.06674661
       193        65         1      -1.0      7.26269439      7.15087036      0.50000000
       194        65         2       0.5      7.64238672      7.45543909      0.61433121
       195        65         2       0.5      6.88300207      6.84630163      0.38566879
       196        66         1      -1.0      8.71584465      7.25633726      0.50000000
       197        66         2       0.5      8.84759022      7.53599287      0.89298326
       198        66         2       0.5      8.58409909      6.97668165      0.10701674
       199        67         1      -1.0     10.30016292      7.24947025      0.50000000
       200        67         2       0.5     10.56841378      7.52962034      0.81552718
       201        67         2       0.5     10.03191206      6.96932017      0.18447282
       202        68         1      -1.0     11.88618557      7.24195977      0.50000000
       203        68         2       0.5     12.13784833      7.65568846      0.62447660
       204        68         2       0.5     11.63452282      6.82823107      0.37552340
       205        69         1      -1.0     13.51714984      7.17958968      0.50000000
       206        69         2       0.5     13.62481336      7.50382830      0.86507244
       207        69         2       0.5     13.40948633      6.85535106      0.13492756
       208        70         1      -1.0     15.12551600      7.25643461      0.50000000
       209        70         2       0.5     15.34287978      7.58705752      0.80568200
       210        70         2       0.5     14.90815223      6.92581171      0.19431800
       211        71         1      -1.0     16.68414745      7.22929267      0.50000000
       212        71         2       0.5     16.79377183      7.50893598      0.89972755
       213        71         2       0.5     16.57452307      6.94964937      0.10027245
       214        72         1      -1.0     18.24609470      7.25865919      0.50000000
       215        72         2       0.5     18.48493079      7.28633002      0.93839668
       216        72         2       0.5     18.00725860      7.23098835      0.06160332
       217        73         1      -1.0     19.84536756      7.14159244      0.50000000
       218        73         2       0.5     19.89985869      7.59640237      0.70044612
       219        73         2       0.5     19.79087642      6.68678252      0.29955388
       220        74         1      -1.0     21.47915601      7.25386393      0.50000000
       221        74         2       0.5     21.64420360      7.42733682      0.93893787
       222        74         2       0.5     21.31410842      7.08039104      0.06106213
       223        75         1      -1.0     22.93313129      7.15246421      0.50000000
       224        75         2       0.5     23.22154578      7.52548019      0.66636152
       225        75         2       0.5     22.64471679      6.77944823      0.33363848
       226        76         1      -1.0      0.88494798      8.81938081      0.50000000
       227        76         2       0.5      1.15073706      9.16812672      0.74027579
       228        76         2       0.5      0.61915889      8.47063490      0.25972421
       229        77         1      -1.0      2.50446164      8.70480594      0.50000000
       230        77         2       0.5      2.72603658      8.97333603      0.85888178
       231        77         2       0.5      2.28288669      8.43627584      0.14111822
       232        78         1      -1.0      4.04838394      8.75474172      0.50000000
       233        78         2       0.5      4.43988296      9.01266935      0.67378678
       234        78         2       0.5      3.65688491      8.49681408      0.32621322
       235        79         1      -1.0      5.58467903      8.82470551      0.50000000
       236        79         2       0.5      5.66337622      8.91155360      0.98607012
       237        79         2       0.5      5.50598184      8.73785742      0.01392988
       238        80         1      -1.0      7.25945159      8.76345392      0.50000000
       239        80         2       0.5      7.50404422      8.91046493      0.91056328
       240        80         2       0.5      7.01485897      8.61644291      0.08943672
       241        81         1      -1.0      8.82634230      8.82855266      0.50000000
       242        81         2       0.5      9.11083546      9.23940759      0.51618226
       243        81         2       0.5      8.54184915      8.41769772      0.48381774
       244        82         1      -1.0     10.35637685      8.84043785      0.50000000
       245        82         2       0.5     10.40119092      9.32335651      0.62157826
       246        82         2       0.5     10.31156277      8.35751920      0.37842174
       247        83         1      -1.0     11.99038506      8.77824935      0.50000000
       248        83         2       0.5     12.35391377      8.90717790      0.81815768
       249        83         2       0.5     11.62685635      8.64932080      0.18184232
       250        84         1      -1.0     13.54648009      8.70205338      0.50000000
       251        84         2       0.5     13.77959978      8.83304424      0.92248859
       252        84         2       0.5     13.31336041      8.57106251      0.07751141
       253        85         1      -1.0     15.14027204      8.79174168      0.50000000
       254        85         2       0.5     15.38399155      9.14783105      0.75258892
       255        85         2       0.5     14.89655253      8.43565231      0.24741108
       256        86         1      -1.0     16.61178377      8.71185909      0.50000000
       257        86         2       0.5     16.84507857      8.96974773      0.85925893
       258        86         2       0.5     16.37848896      8.45397046      0.14074107
       259        87         1      -1.0     18.29015808      8.80669216      0.50000000
       260        87         2       0.5     18.35300290      9.10312830      0.89771364
       261        87         2       0.5     18.22731326      8.51025602      0.10228636
       262        88         1      -1.0     19.88884381      8.78132425      0.50000000
       263        88         2       0.5     20.07641122      9.23133461      0.61094658
       264        88         2       0.5     19.70127639      8.33131389      0.38905342
       265        89         1      -1.0     21.48202000      8.84880128      0.50000000
       266        89         2       0.5     21.81028632      9.22526442      0.52273157
       267        89         2       0.5     21.15375368      8.47233814      0.47726843
       268        90         1      -1.0     23.07990857      8.73424306      0.50000000
       269        90         2       0.5     23.40357603      8.95604830      0.80990614
       270        90         2       0.5     22.75624112      8.51243781      0.19009386
       271        91         1      -1.0      0.88224342     10.34221750      0.50000000
       272        91         2       0.5      1.31009430     10.59733691      0.54310111
       273        91         2       0.5      0.45439253     10.08709809      0.45689889
       274        92         1      -1.0      2.40367143     10.43186772      0.50000000
       275        92         2       0.5      2.80812939     10.71622389      0.57453404
       276        92         2       0.5      1.99921346     10.14751155      0.42546596
       277        93         1      -1.0      4.09321091     10.32389062      0.50000000
       278        93         2       0.5      4.24863962     10.71254278      0.77348018
       279        93         2       0.5      3.93778220      9.93523845      0.22651982
       280        94         1      -1.0      5.66241032     10.30577162      0.50000000
       281        94         2       0.5      5.78450883     10.76157418      0.66533595
       282        94         2       0.5      5.54031180      9.84996906      0.33466405
       283        95         1      -1.0      7.14127308     10.29634222      0.50000000
       284        95         2       0.5      7.56738169     10.34750525      0.75654200
       285        95         2       0.5      6.71516447     10.24517919      0.24345800
       286        96         1      -1.0      8.76601099     10.35324543      0.50000000
       287        96         2       0.5      9.18720248     10.46437186      0.74545599
       288        96         2       0.5      8.34481950     10.24211900      0.25454401
       289        97         1      -1.0     10.43268033     10.34273069      0.50000000
       290        97         2       0.5     10.51616360     10.59123012      0.92576822
       291        97         2       0.5     10.34919706     10.09423126      0.07423178
       292        98         1      -1.0     12.01550669     10.31928006      0.50000000
       293        98         2       0.5     12.35993519     10.50085401      0.81368760
       294        98         2       0.5     11.67107819     10.13770611      0.18631240
       295        99         1      -1.0     13.52309179     10.39567678      0.50000000
       296        99         2       0.5     13.76408945     10.74174864      0.76861571
       297        99         2       0.5     13.28209413     10.04960492      0.23138429
       298       100         1      -1.0     15.09253048     10.38674328      0.50000000
       299       100         2       0.5     15.25868370     10.82467096      0.67496414
       300       100         2       0.5     14.92637725      9.94881559      0.32503586
       301       101         1      -1.0     16.65199447     10.34024327      0.50000000
       302       101         2       0.5     16.95642695     10.62281492      0.77834174
       303       101         2       0.5     16.34756198     10.05767162      0.22165826
       304       102         1      -1.0     18.19739837     10.41879344      0.50000000
       305       102         2       0.5     18.23867349     10.84745098      0.75406511
       306       102         2       0.5     18.15612325      9.99013590      0.24593489
       307       103         1      -1.0     19.79576518     10.43023169      0.50000000
       308       103         2       0.5     19.97138762     10.89345699      0.56766886
       309       103         2       0.5     19.62014275      9.96700638      0.43233114
       310       104         1      -1.0     21.37236757     10.38370407      0.50000000
       311       104         2       0.5     21.74369724     10.68154020      0.65299644
       312       104         2       0.5     21.00103790     10.08586793      0.34700356
       313       105         1      -1.0     23.04042447     10.39651305      0.50000000
       314       105         2       0.5     23.17166925     10.78637892      0.78421719
       315       105         2       0.5     22.90917968     10.00664718      0.21578281
       316       106         1      -1.0      0.81624353     11.92358615      0.50000000
       317       106         2       0.5      1.24325645     11.95419479      0.75830810
       318       106         2       0.5      0.38923061     11.89297751      0.24169190
       319       107         1      -1.0      2.51999365     11.86683690      0.50000000
       320       107         2       0.5      2.69248490     12.08273043      0.91669743
       321       107         2       0.5      2.34750239     11.65094338      0.08330257
       322       108         1      -1.0      3.99559095     12.01181724      0.50000000
       323       108         2       0.5      4.48984405     12.08613670      0.51380172
       324       108         2       0.5      3.50133785     11.93749778      0.48619828
       325       109         1      -1.0      5.62707954     11.86782039      0.50000000
       326       109         2       0.5      5.90250070     12.02094141      0.88819729
       327       109         2       0.5      5.35165838     11.71469936      0.11180271
       328       110         1      -1.0      7.12701391     11.94061700      0.50000000
       329       110         2       0.5      7.24494448     12.30720860      0.81890905
       330       110         2       0.5      7.00908335     11.57402541      0.18109095