ITEM: TIMESTEP
10000
ITEM: NUMBER OF ATOMS
1350
ITEM: BOX BOUNDS pp pp pp
-1.0000000000000000e+01 1.0000000000000000e+01
-1.0000000000000000e+01 1.0000000000000000e+01
-5.0000000000000000e-01 5.0000000000000000e-01
ITEM: ATOMS id type xs ys zs
1 1 0.38078 0.841631 0.5
2 2 0.361579 0.82567 0.5
3 2 0.38816 0.817738 0.5
4 2 0.405543 0.838305 0.5
5 2 0.388731 0.865333 0.5
6 2 0.35897 0.853914 0.5
7 1 0.140499 0.130408 0.5
8 2 0.116899 0.138617 0.5
9 2 0.129761 0.10789 0.5
10 2 0.163149 0.119655 0.5
11 2 0.154462 0.151273 0.5
12 2 0.134546 0.154703 0.5
13 1 0.881492 0.362847 0.5
14 2 0.869204 0.34066 0.5
15 2 0.896809 0.343709 0.5
16 2 0.902867 0.376447 0.5
17 2 0.879934 0.388494 0.5
18 2 0.857321 0.369735 0.5
19 1 0.760067 0.946449 0.5
20 2 0.752656 0.922329 0.5
21 2 0.785164 0.943829 0.5
22 2 0.779034 0.963044 0.5
23 2 0.745017 0.966414 0.5
24 2 0.741726 0.929608 0.5
25 1 0.36891 0.0131828 0.5
26 2 0.34754 0.000486018 0.5
27 2 0.384621 0.993716 0.5
28 2 0.38771 0.0295514 0.5
29 2 0.370456 0.0379892 0.5
30 2 0.34629 0.0238788 0.5
31 1 0.689671 0.224768 0.5
32 2 0.69792 0.20099 0.5
33 2 0.714621 0.224823 0.5
34 2 0.697645 0.248393 0.5
35 2 0.667774 0.236748 0.5
36 2 0.669482 0.210038 0.5
37 1 0.543137 0.865607 0.5
38 2 0.521638 0.852581 0.5
39 2 0.554723 0.84334 0.5
40 2 0.56738 0.873573 0.5
41 2 0.540638 0.890427 0.5
42 2 0.521364 0.877922 0.5
43 1 0.686666 0.940127 0.5
44 2 0.705277 0.92318 0.5
45 2 0.705657 0.956297 0.5
46 2 0.672957 0.960656 0.5
47 2 0.662526 0.933628 0.5
48 2 0.682932 0.91562 0.5
49 1 0.776626 0.199125 0.5
50 2 0.753381 0.208218 0.5
51 2 0.760348 0.180233 0.5
52 2 0.786372 0.175742 0.5
53 2 0.800749 0.205285 0.5
54 2 0.782321 0.22334 0.5
55 1 0.601813 0.977416 0.5
56 2 0.59858 0.952717 0.5
57 2 0.618365 0.958275 0.5
58 2 0.626224 0.972329 0.5
59 2 0.602109 0.00253515 0.5
60 2 0.579265 0.987985 0.5
61 1 0.546224 0.739265 0.5
62 2 0.525027 0.72628 0.5
63 2 0.550667 0.714526 0.5
64 2 0.571297 0.740587 0.5
65 2 0.549757 0.763852 0.5
66 2 0.524381 0.751368 0.5
67 1 0.987124 0.58585 0.5
68 2 0.965429 0.573569 0.5
69 2 0.987119 0.560861 0.5
70 2 0.0110096 0.578214 0.5
71 2 0.0028994 0.605286 0.5
72 2 0.969192 0.602954 0.5
73 1 0.960682 0.252293 0.5
74 2 0.951233 0.228626 0.5
75 2 0.984892 0.246672 0.5
76 2 0.942047 0.269081 0.5
77 2 0.973182 0.230418 0.5
78 2 0.957686 0.276945 0.5
79 1 0.53004 0.281243 0.5
80 2 0.508709 0.294339 0.5
81 2 0.514488 0.261566 0.5
82 2 0.545083 0.261406 0.5
83 2 0.554862 0.283399 0.5
84 2 0.540818 0.303916 0.5
85 1 0.74386 0.395909 0.5
86 2 0.728812 0.375972 0.5
87 2 0.755463 0.373824 0.5
88 2 0.767931 0.400665 0.5
89 2 0.739725 0.420557 0.5
90 2 0.718909 0.396561 0.5
91 1 0.441658 0.563197 0.5
92 2 0.430646 0.540686 0.5
93 2 0.457238 0.543641 0.5
94 2 0.465628 0.570352 0.5
95 2 0.437772 0.587802 0.5
96 2 0.416651 0.562003 0.5
97 1 0.403635 0.786537 0.5
98 2 0.388963 0.766292 0.5
99 2 0.416888 0.765419 0.5
100 2 0.428262 0.7913 0.5
101 2 0.403094 0.811539 0.5
102 2 0.379026 0.791321 0.5
103 1 0.860464 0.579016 0.5
104 2 0.836549 0.571598 0.5
105 2 0.857749 0.554157 0.5
106 2 0.881495 0.565592 0.5
107 2 0.879262 0.595496 0.5
108 2 0.843182 0.596953 0.5
109 1 0.999949 0.735517 0.5
110 2 0.992387 0.71167 0.5
111 2 0.0193391 0.7197 0.5
112 2 0.0216913 0.747782 0.5
113 2 0.992003 0.75915 0.5
114 2 0.97498 0.734468 0.5
115 1 0.893661 0.99392 0.5
116 2 0.891028 0.968979 0.5
117 2 0.912433 0.977126 0.5
118 2 0.909425 0.0133816 0.5
119 2 0.875126 0.010752 0.5
120 2 0.87104 0.983335 0.5
121 1 0.159069 0.31146 0.5
122 2 0.152301 0.287334 0.5
123 2 0.169888 0.288698 0.5
124 2 0.18359 0.307293 0.5
125 2 0.160658 0.336221 0.5
126 2 0.134025 0.313015 0.5
127 1 0.529528 0.441434 0.5
128 2 0.51001 0.425814 0.5
129 2 0.532066 0.416691 0.5
130 2 0.554316 0.437685 0.5
131 2 0.536071 0.465517 0.5
132 2 0.508601 0.455205 0.5
133 1 0.520626 0.153417 0.5
134 2 0.505448 0.133477 0.5
135 2 0.531495 0.130881 0.5
136 2 0.545644 0.154582 0.5
137 2 0.522657 0.178235 0.5
138 2 0.498195 0.164407 0.5
139 1 0.623823 0.803405 0.5
140 2 0.614032 0.826406 0.5
141 2 0.623253 0.777892 0.5
142 2 0.639001 0.823203 0.5
143 2 0.600635 0.81285 0.5
144 2 0.641487 0.786094 0.5
145 1 0.963963 0.35647 0.5
146 2 0.956513 0.332574 0.5
147 2 0.986945 0.346193 0.5
148 2 0.979423 0.375865 0.5
149 2 0.953074 0.378594 0.5
150 2 0.938997 0.355869 0.5
151 1 0.473351 0.709202 0.5
152 2 0.449094 0.703684 0.5
153 2 0.476469 0.68423 0.5
154 2 0.498391 0.706905 0.5
155 2 0.482153 0.732626 0.5
156 2 0.45636 0.727563 0.5
157 1 0.37796 0.469954 0.5
158 2 0.356285 0.482182 0.5
159 2 0.360425 0.451931 0.5
160 2 0.385111 0.445962 0.5
161 2 0.402654 0.465832 0.5
162 2 0.385985 0.493664 0.5
163 1 0.561393 0.49009 0.5
164 2 0.567488 0.466027 0.5
165 2 0.586461 0.489434 0.5
166 2 0.569159 0.513826 0.5
167 2 0.541877 0.505759 0.5
168 2 0.541251 0.475283 0.5
169 1 0.411856 0.134575 0.5
170 2 0.435749 0.14207 0.5
171 2 0.41026 0.159616 0.5
172 2 0.388695 0.144226 0.5
173 2 0.398401 0.113746 0.5
174 2 0.423384 0.112509 0.5
175 1 0.0306559 0.231013 0.5
176 2 0.0288251 0.205848 0.5
177 2 0.053945 0.224196 0.5
178 2 0.0456129 0.251092 0.5
179 2 0.0233998 0.254992 0.5
180 2 0.00616954 0.22832 0.5
181 1 0.945333 0.918744 0.5
182 2 0.923211 0.907 0.5
183 2 0.947004 0.893824 0.5
184 2 0.969181 0.911454 0.5
185 2 0.952083 0.943011 0.5
186 2 0.9266 0.935178 0.5
187 1 0.499779 0.771028 0.5
188 2 0.488283 0.74898 0.5
189 2 0.51628 0.752128 0.5
190 2 0.523411 0.779412 0.5
191 2 0.500331 0.796368 0.5
192 2 0.474969 0.774198 0.5
193 1 0.624055 0.631857 0.5
194 2 0.610221 0.610781 0.5
195 2 0.636885 0.610042 0.5
196 2 0.633454 0.654648 0.5
197 2 0.608189 0.65103 0.5
198 2 0.600871 0.64126 0.5
199 1 0.222904 0.478542 0.5
200 2 0.224577 0.452877 0.5
201 2 0.232623 0.50193 0.5
202 2 0.198053 0.47565 0.5
203 2 0.247052 0.483124 0.5
204 2 0.197552 0.47717 0.5
205 1 0.255184 0.246008 0.5
206 2 0.242523 0.224432 0.5
207 2 0.270327 0.226106 0.5
208 2 0.279012 0.25362 0.5
209 2 0.256264 0.271004 0.5
210 2 0.231624 0.254298 0.5
211 1 0.53871 0.0572714 0.5
212 2 0.561436 0.0475911 0.5
213 2 0.537192 0.0820827 0.5
214 2 0.515022 0.0491636 0.5
215 2 0.563459 0.0544717 0.5
216 2 0.514158 0.0634263 0.5
217 1 0.416434 0.258914 0.5
218 2 0.405708 0.236362 0.5
219 2 0.438127 0.245971 0.5
220 2 0.434096 0.276578 0.5
221 2 0.400215 0.2778 0.5
222 2 0.391401 0.257272 0.5
223 1 0.815687 0.103759 0.5
224 2 0.825225 0.0804915 0.5
225 2 0.824549 0.127425 0.5
226 2 0.800814 0.0834893 0.5
227 2 0.826 0.126759 0.5
228 2 0.790473 0.100793 0.5
229 1 0.806891 0.90733 0.5
230 2 0.784707 0.896026 0.5
231 2 0.81255 0.883109 0.5
232 2 0.831368 0.901775 0.5
233 2 0.81812 0.929853 0.5
234 2 0.787262 0.922856 0.5
235 1 0.238244 0.812887 0.5
236 2 0.222029 0.794072 0.5
237 2 0.252523 0.792383 0.5
238 2 0.262594 0.818323 0.5
239 2 0.239326 0.837773 0.5
240 2 0.213775 0.818129 0.5
241 1 0.487234 0.873119 0.5
242 2 0.488898 0.848153 0.5
243 2 0.510691 0.864423 0.5
244 2 0.510168 0.883072 0.5
245 2 0.483824 0.897917 0.5
246 2 0.462261 0.87131 0.5
247 1 0.0145959 0.955053 0.5
248 2 0.0265885 0.933077 0.5
249 2 0.0389735 0.949424 0.5
250 2 0.0304457 0.974413 0.5
251 2 0.995094 0.970819 0.5
252 2 0.996494 0.937732 0.5
253 1 0.315897 0.222985 0.5
254 2 0.311026 0.198354 0.5
255 2 0.340525 0.220107 0.5
256 2 0.335391 0.238224 0.5
257 2 0.31139 0.247621 0.5
258 2 0.291271 0.227727 0.5
259 1 0.316574 0.432553 0.5
260 2 0.291962 0.429345 0.5
261 2 0.31461 0.407413 0.5
262 2 0.33802 0.419787 0.5
263 2 0.336146 0.44812 0.5
264 2 0.311016 0.456953 0.5
265 1 0.0136242 0.536156 0.5
266 2 0.00769821 0.511971 0.5
267 2 0.0301222 0.517325 0.5
268 2 0.0355594 0.548171 0.5
269 2 0.00615811 0.559837 0.5
270 2 0.988835 0.533521 0.5
271 1 0.386935 0.33794 0.5
272 2 0.407943 0.323908 0.5
273 2 0.404532 0.355338 0.5
274 2 0.367882 0.354314 0.5
275 2 0.36256 0.334007 0.5
276 2 0.378038 0.314382 0.5
277 1 0.522245 0.623224 0.5
278 2 0.508323 0.602463 0.5
279 2 0.531241 0.6 0.5
280 2 0.547014 0.619588 0.5
281 2 0.522935 0.648297 0.5
282 2 0.497441 0.626533 0.5
283 1 0.689215 0.279943 0.5
284 2 0.696905 0.256224 0.5
285 2 0.712639 0.288524 0.5
286 2 0.689222 0.30496 0.5
287 2 0.665083 0.286467 0.5
288 2 0.674253 0.25993 0.5
289 1 0.11782 0.0543761 0.5
290 2 0.132788 0.0344871 0.5
291 2 0.142767 0.0528268 0.5
292 2 0.130416 0.0759987 0.5
293 2 0.0990143 0.0709462 0.5
294 2 0.103671 0.0338063 0.5
295 1 0.592256 0.0691773 0.5
296 2 0.571787 0.054901 0.5
297 2 0.595176 0.0439747 0.5
298 2 0.616941 0.0720979 0.5
299 2 0.599071 0.0934705 0.5
300 2 0.568903 0.0786778 0.5
301 1 0.143016 0.550516 0.5
302 2 0.123047 0.53544 0.5
303 2 0.150215 0.526559 0.5
304 2 0.167982 0.548799 0.5
305 2 0.148931 0.574753 0.5
306 2 0.120749 0.561944 0.5
307 1 0.639033 0.248426 0.5
308 2 0.614049 0.252106 0.5
309 2 0.63235 0.224328 0.5
310 2 0.663067 0.241267 0.5
311 2 0.651695 0.270179 0.5
312 2 0.627211 0.270295 0.5
313 1 0.901674 0.200667 0.5
314 2 0.878931 0.189329 0.5
315 2 0.912446 0.178311 0.5
316 2 0.926457 0.196074 0.5
317 2 0.920229 0.218131 0.5
318 2 0.886858 0.220782 0.5
319 1 0.265069 0.984635 0.5
320 2 0.253671 0.962417 0.5
321 2 0.282155 0.966379 0.5
322 2 0.288122 0.994613 0.5
323 2 0.261461 0.00934084 0.5
324 2 0.240311 0.987532 0.5
325 1 0.937948 0.749597 0.5
326 2 0.916614 0.736619 0.5
327 2 0.943013 0.725338 0.5
328 2 0.962816 0.7477 0.5
329 2 0.952167 0.770135 0.5
330 2 0.922489 0.769109 0.5
331 1 0.983749 0.415089 0.5
332 2 0.964054 0.430764 0.5
333 2 0.96192 0.40274 0.5
334 2 0.984305 0.389845 0.5
335 2 0.00903234 0.410863 0.5
336 2 0.981799 0.439776 0.5
337 1 0.568616 0.0182553 0.5
338 2 0.572046 0.993241 0.5
339 2 0.589524 0.00475996 0.5
340 2 0.577183 0.0422124 0.5
341 2 0.547768 0.0316137 0.5
342 2 0.547855 0.00404295 0.5
343 1 0.572102 0.117678 0.5
344 2 0.548342 0.110257 0.5
345 2 0.569798 0.0930954 0.5
346 2 0.595099 0.108512 0.5
347 2 0.593232 0.130854 0.5
348 2 0.571264 0.142715 0.5
349 1 0.592916 0.282438 0.5
350 2 0.594935 0.25749 0.5
351 2 0.616149 0.273243 0.5
352 2 0.609104 0.301602 0.5
353 2 0.572846 0.297655 0.5
354 2 0.574438 0.265831 0.5
355 1 0.727836 0.660504 0.5
356 2 0.706673 0.646689 0.5
357 2 0.735809 0.636812 0.5
358 2 0.751848 0.655937 0.5
359 2 0.738646 0.68299 0.5
360 2 0.712393 0.679807 0.5
361 1 0.103796 0.659266 0.5
362 2 0.111556 0.63545 0.5
363 2 0.128566 0.661494 0.5
364 2 0.106562 0.684039 0.5
365 2 0.0811317 0.669581 0.5
366 2 0.0846062 0.643403 0.5
367 1 0.0843297 0.360747 0.5
368 2 0.0742295 0.33789 0.5
369 2 0.103574 0.344781 0.5
370 2 0.105465 0.374142 0.5
371 2 0.0769653 0.3846 0.5
372 2 0.0595037 0.363752 0.5
373 1 0.33347 0.970413 0.5
374 2 0.324984 0.947009 0.5
375 2 0.34946 0.95105 0.5
376 2 0.355996 0.981139 0.5
377 2 0.322872 0.992953 0.5
378 2 0.308618 0.971562 0.5
379 1 0.689942 0.379807 0.5
380 2 0.685014 0.355213 0.5
381 2 0.711056 0.366362 0.5
382 2 0.711206 0.392925 0.5
383 2 0.685112 0.404326 0.5
384 2 0.665351 0.384257 0.5
385 1 0.223269 0.944589 0.5
386 2 0.215434 0.920775 0.5
387 2 0.244375 0.93127 0.5
388 2 0.242641 0.960342 0.5
389 2 0.215737 0.968284 0.5
390 2 0.198381 0.945784 0.5
391 1 0.0173759 0.363755 0.5
392 2 0.00615476 0.341395 0.5
393 2 0.0332729 0.344426 0.5
394 2 0.0416446 0.369872 0.5
395 2 0.0151979 0.388827 0.5
396 2 0.992506 0.360868 0.5
397 1 0.853212 0.168733 0.5
398 2 0.830406 0.17935 0.5
399 2 0.854317 0.143982 0.5
400 2 0.860801 0.191922 0.5
401 2 0.835604 0.151465 0.5
402 2 0.873247 0.18443 0.5
403 1 0.465652 0.0556025 0.5
404 2 0.441792 0.0632113 0.5
405 2 0.470785 0.0308751 0.5
406 2 0.478209 0.0769842 0.5
407 2 0.441969 0.0485913 0.5
408 2 0.489956 0.06116 0.5
409 1 0.0433849 0.587284 0.5
410 2 0.027701 0.567733 0.5
411 2 0.0564391 0.56602 0.5
412 2 0.067647 0.592992 0.5
413 2 0.0475598 0.61192 0.5
414 2 0.0217905 0.599846 0.5
415 1 0.299435 0.691008 0.5
416 2 0.276093 0.682579 0.5
417 2 0.302027 0.666085 0.5
418 2 0.324291 0.692971 0.5
419 2 0.302639 0.715783 0.5
420 2 0.278348 0.704146 0.5
421 1 0.683786 0.80057 0.5
422 2 0.701808 0.783274 0.5
423 2 0.707562 0.808432 0.5
424 2 0.6888 0.824988 0.5
425 2 0.659671 0.807608 0.5
426 2 0.672679 0.778167 0.5
427 1 0.121665 0.255017 0.5
428 2 0.100082 0.242514 0.5
429 2 0.138952 0.236845 0.5
430 2 0.145095 0.263354 0.5
431 2 0.129898 0.278554 0.5
432 2 0.105403 0.273887 0.5
433 1 0.317507 0.486687 0.5
434 2 0.333553 0.467361 0.5
435 2 0.337877 0.501301 0.5
436 2 0.317973 0.511708 0.5
437 2 0.293577 0.4943 0.5
438 2 0.304406 0.465154 0.5
439 1 0.592813 0.227732 0.5
440 2 0.568933 0.220206 0.5
441 2 0.590537 0.202702 0.5
442 2 0.615878 0.218271 0.5
443 2 0.609556 0.246458 0.5
444 2 0.580333 0.249363 0.5
445 1 0.741411 0.242446 0.5
446 2 0.72066 0.228323 0.5
447 2 0.747076 0.218123 0.5
448 2 0.766402 0.244592 0.5
449 2 0.74646 0.26682 0.5
450 2 0.723217 0.259512 0.5
451 1 0.415856 0.614331 0.5
452 2 0.391762 0.62106 0.5
453 2 0.426436 0.592303 0.5
454 2 0.405534 0.637925 0.5
455 2 0.409608 0.589589 0.5
456 2 0.423919 0.63816 0.5
457 1 0.124163 0.604016 0.5
458 2 0.12269 0.57895 0.5
459 2 0.144626 0.58991 0.5
460 2 0.144898 0.617901 0.5
461 2 0.112637 0.626267 0.5
462 2 0.100922 0.595143 0.5
463 1 0.702267 0.531506 0.5
464 2 0.678437 0.539516 0.5
465 2 0.685633 0.512932 0.5
466 2 0.717901 0.511854 0.5
467 2 0.7195 0.549502 0.5
468 2 0.701424 0.556522 0.5
469 1 0.186176 0.0237196 0.5
470 2 0.168741 0.00569781 0.5
471 2 0.199356 0.00236547 0.5
472 2 0.211034 0.024845 0.5
473 2 0.199121 0.0451981 0.5
474 2 0.168974 0.0419026 0.5
475 1 0.284547 0.0598646 0.5
476 2 0.271475 0.0811407 0.5
477 2 0.259791 0.0559708 0.5
478 2 0.282517 0.0350363 0.5
479 2 0.304963 0.0444633 0.5
480 2 0.299877 0.0799803 0.5
481 1 0.785747 0.336989 0.5
482 2 0.782261 0.361703 0.5
483 2 0.761853 0.344353 0.5
484 2 0.769005 0.31829 0.5
485 2 0.806857 0.323524 0.5
486 2 0.805637 0.352102 0.5
487 1 0.62183 0.131031 0.5
488 2 0.606881 0.110534 0.5
489 2 0.640072 0.113919 0.5
490 2 0.641389 0.146509 0.5
491 2 0.615709 0.155059 0.5
492 2 0.596973 0.134238 0.5
493 1 0.424396 0.735723 0.5
494 2 0.410545 0.714776 0.5
495 2 0.437314 0.714311 0.5
496 2 0.448107 0.743292 0.5
497 2 0.421931 0.760625 0.5
498 2 0.399442 0.737809 0.5
499 1 0.255795 0.304804 0.5
500 2 0.232207 0.313306 0.5
501 2 0.236897 0.288445 0.5
502 2 0.267512 0.282773 0.5
503 2 0.280033 0.310952 0.5
504 2 0.252471 0.329717 0.5
505 1 0.819591 0.74787 0.5
506 2 0.815611 0.723749 0.5
507 2 0.844164 0.754303 0.5
508 2 0.794567 0.746358 0.5
509 2 0.84432 0.744716 0.5
510 2 0.804284 0.767727 0.5
511 1 0.256973 0.517942 0.5
512 2 0.244856 0.54011 0.5
513 2 0.257643 0.493353 0.5
514 2 0.274884 0.536052 0.5
515 2 0.232105 0.513048 0.5
516 2 0.278244 0.504912 0.5
517 1 0.308678 0.310303 0.5
518 2 0.284738 0.317922 0.5
519 2 0.302443 0.286137 0.5
520 2 0.328397 0.295007 0.5
521 2 0.331975 0.319665 0.5
522 2 0.302163 0.334532 0.5
523 1 0.729551 0.0961945 0.5
524 2 0.714328 0.0761575 0.5
525 2 0.753647 0.101826 0.5
526 2 0.705169 0.100406 0.5
527 2 0.751231 0.0846915 0.5
528 2 0.71879 0.118659 0.5
529 1 0.683591 0.0538784 0.5
530 2 0.666112 0.0359361 0.5
531 2 0.689852 0.0294339 0.5
532 2 0.708456 0.0536085 0.5
533 2 0.689365 0.0782328 0.5
534 2 0.659975 0.0612043 0.5
535 1 0.110991 0.934119 0.5
536 2 0.121243 0.911243 0.5
537 2 0.135316 0.93975 0.5
538 2 0.111188 0.959048 0.5
539 2 0.087208 0.941756 0.5
540 2 0.0953896 0.914628 0.5
541 1 0.774295 0.0567611 0.5
542 2 0.795313 0.0429459 0.5
543 2 0.79668 0.0676079 0.5
544 2 0.775834 0.0816757 0.5
545 2 0.750568 0.0650625 0.5
546 2 0.76566 0.0334905 0.5
547 1 0.199315 0.587377 0.5
548 2 0.215521 0.606578 0.5
549 2 0.192917 0.61161 0.5
550 2 0.174256 0.587265 0.5
551 2 0.19436 0.562896 0.5
552 2 0.222391 0.578105 0.5
553 1 0.329973 0.908441 0.5
554 2 0.332999 0.883618 0.5
555 2 0.351706 0.89585 0.5
556 2 0.342772 0.930107 0.5
557 2 0.31419 0.927524 0.5
558 2 0.306472 0.899725 0.5
559 1 0.981854 0.653729 0.5
560 2 0.979841 0.628833 0.5
561 2 0.00677257 0.650072 0.5
562 2 0.994934 0.67541 0.5
563 2 0.971037 0.676196 0.5
564 2 0.957177 0.6499 0.5
565 1 0.914226 0.50867 0.5
566 2 0.907168 0.484371 0.5
567 2 0.93867 0.50255 0.5
568 2 0.925204 0.531232 0.5
569 2 0.895552 0.525079 0.5
570 2 0.890767 0.500185 0.5
571 1 0.591472 0.444296 0.5
572 2 0.57913 0.422533 0.5
573 2 0.602703 0.421852 0.5
574 2 0.615526 0.437225 0.5
575 2 0.600951 0.46742 0.5
576 2 0.571024 0.4584 0.5
577 1 0.576005 0.572749 0.5
578 2 0.568782 0.548983 0.5
579 2 0.588745 0.5943 0.5
580 2 0.5518 0.567472 0.5
581 2 0.600816 0.568634 0.5
582 2 0.555251 0.586329 0.5
583 1 0.823388 0.851382 0.5
584 2 0.828977 0.826815 0.5
585 2 0.847307 0.844238 0.5
586 2 0.837802 0.871712 0.5
587 2 0.805249 0.868416 0.5
588 2 0.800274 0.842163 0.5
589 1 0.510206 0.925145 0.5
590 2 0.507167 0.900381 0.5
591 2 0.53055 0.910653 0.5
592 2 0.53181 0.937804 0.5
593 2 0.501933 0.948856 0.5
594 2 0.485565 0.92458 0.5
595 1 0.955224 0.996349 0.5
596 2 0.943962 0.974308 0.5
597 2 0.971925 0.977636 0.5
598 2 0.975281 0.0112822 0.5
599 2 0.94874 0.0206682 0.5
600 2 0.93028 0.997282 0.5
601 1 0.797932 0.250329 0.5
602 2 0.773718 0.244143 0.5
603 2 0.792138 0.226026 0.5
604 2 0.818644 0.236311 0.5
605 2 0.811814 0.271047 0.5
606 2 0.786804 0.272739 0.5
607 1 0.16738 0.943436 0.5
608 2 0.150407 0.924999 0.5
609 2 0.172191 0.918876 0.5
610 2 0.192028 0.939383 0.5
611 2 0.176802 0.966597 0.5
612 2 0.14459 0.953516 0.5
613 1 0.896564 0.936584 0.5
614 2 0.904515 0.912963 0.5
615 2 0.921654 0.937764 0.5
616 2 0.904594 0.960457 0.5
617 2 0.878255 0.953737 0.5
618 2 0.875784 0.922926 0.5
619 1 0.514857 0.529467 0.5
620 2 0.494742 0.514833 0.5
621 2 0.521059 0.505266 0.5
622 2 0.539614 0.532149 0.5
623 2 0.52465 0.552661 0.5
624 2 0.49579 0.545468 0.5
625 1 0.0127161 0.00723715 0.5
626 2 0.995825 0.0261044 0.5
627 2 0.989055 0.999494 0.5
628 2 0.00499979 0.98353 0.5
629 2 0.0349314 0.995638 0.5
630 2 0.029145 0.0260498 0.5
631 1 0.842941 0.316369 0.5
632 2 0.832101 0.29375 0.5
633 2 0.860937 0.299222 0.5
634 2 0.863288 0.330832 0.5
635 2 0.837181 0.340434 0.5
636 2 0.81773 0.316655 0.5
637 1 0.003243 0.812599 0.5
638 2 0.0100914 0.836651 0.5
639 2 0.98745 0.832005 0.5
640 2 0.981654 0.80002 0.5
641 2 0.0142662 0.790147 0.5
642 2 0.0275722 0.818067 0.5
643 1 0.354001 0.681729 0.5
644 2 0.338015 0.6627 0.5
645 2 0.374787 0.66771 0.5
646 2 0.377927 0.689432 0.5
647 2 0.36004 0.705685 0.5
648 2 0.330969 0.691169 0.5
649 1 0.19536 0.532996 0.5
650 2 0.17423 0.519472 0.5
651 2 0.198289 0.50803 0.5
652 2 0.220064 0.529204 0.5
653 2 0.197307 0.55786 0.5
654 2 0.175191 0.547906 0.5
655 1 0.866982 0.116045 0.5
656 2 0.850975 0.0976932 0.5
657 2 0.885454 0.10013 0.5
658 2 0.887405 0.129678 0.5
659 2 0.86437 0.140225 0.5
660 2 0.84206 0.118197 0.5
661 1 0.628544 0.492344 0.5
662 2 0.614229 0.471675 0.5
663 2 0.643912 0.472504 0.5
664 2 0.650895 0.503391 0.5
665 2 0.625913 0.517387 0.5
666 2 0.604037 0.497193 0.5
667 1 0.770252 0.448743 0.5
668 2 0.745234 0.447968 0.5
669 2 0.763638 0.424582 0.5
670 2 0.789406 0.432574 0.5
671 2 0.791965 0.460883 0.5
672 2 0.763303 0.472731 0.5
673 1 0.467756 0.458617 0.5
674 2 0.447399 0.444111 0.5
675 2 0.470772 0.433676 0.5
676 2 0.492598 0.456552 0.5
677 2 0.47297 0.483145 0.5
678 2 0.445667 0.470437 0.5
679 1 0.753082 0.559465 0.5
680 2 0.754912 0.534574 0.5
681 2 0.777867 0.556397 0.5
682 2 0.764261 0.581941 0.5
683 2 0.737248 0.578942 0.5
684 2 0.730818 0.548151 0.5
685 1 0.993494 0.0673261 0.5
686 2 0.96824 0.0683 0.5
687 2 0.0085611 0.0473026 0.5
688 2 0.994267 0.0923037 0.5
689 2 0.971164 0.0560152 0.5
690 2 0.00770365 0.0879351 0.5
691 1 0.0770571 0.421422 0.5
692 2 0.059616 0.403406 0.5
693 2 0.094767 0.40389 0.5
694 2 0.0991823 0.433655 0.5
695 2 0.074873 0.446291 0.5
696 2 0.0533112 0.429268 0.5
697 1 0.259933 0.576051 0.5
698 2 0.241312 0.559302 0.5
699 2 0.267974 0.552266 0.5
700 2 0.28508 0.575912 0.5
701 2 0.273116 0.597049 0.5
702 2 0.241775 0.592909 0.5
703 1 0.630535 0.0247419 0.5
704 2 0.617473 0.00332915 0.5
705 2 0.646903 0.00587316 0.5
706 2 0.654401 0.0322801 0.5
707 2 0.632787 0.0496038 0.5
708 2 0.607454 0.0344626 0.5
709 1 0.436381 0.396233 0.5
710 2 0.411817 0.399873 0.5
711 2 0.41783 0.378846 0.5
712 2 0.450254 0.37562 0.5
713 2 0.458101 0.409398 0.5
714 2 0.423425 0.417812 0.5
715 1 0.314583 0.571922 0.5
716 2 0.290478 0.578484 0.5
717 2 0.301652 0.550461 0.5
718 2 0.33348 0.555552 0.5
719 2 0.334926 0.586318 0.5
720 2 0.314195 0.59687 0.5
721 1 0.798348 0.496041 0.5
722 2 0.773355 0.49566 0.5
723 2 0.796112 0.471235 0.5
724 2 0.822414 0.489285 0.5
725 2 0.812419 0.516715 0.5
726 2 0.787324 0.518421 0.5
727 1 0.551243 0.68163 0.5
728 2 0.547942 0.656605 0.5
729 2 0.564695 0.702497 0.5
730 2 0.537247 0.702502 0.5
731 2 0.566979 0.661866 0.5
732 2 0.540789 0.703024 0.5
733 1 0.081562 0.839164 0.5
734 2 0.0574739 0.832136 0.5
735 2 0.0819363 0.814112 0.5
736 2 0.10422 0.828781 0.5
737 2 0.0988226 0.857252 0.5
738 2 0.0697478 0.86107 0.5
739 1 0.0664261 0.986677 0.5
740 2 0.0451721 0.973801 0.5
741 2 0.0705427 0.961951 0.5
742 2 0.0902985 0.979226 0.5
743 2 0.078145 0.00873239 0.5
744 2 0.0450539 0.999511 0.5
745 1 0.934714 0.627612 0.5
746 2 0.932179 0.602532 0.5
747 2 0.959275 0.624253 0.5
748 2 0.947396 0.649099 0.5
749 2 0.921376 0.648856 0.5
750 2 0.909652 0.624827 0.5
751 1 0.379095 0.581131 0.5
752 2 0.355728 0.5726 0.5
753 2 0.38075 0.556128 0.5
754 2 0.403876 0.577494 0.5
755 2 0.392188 0.602195 0.5
756 2 0.36082 0.598143 0.5
757 1 0.479882 0.308663 0.5
758 2 0.464939 0.328772 0.5
759 2 0.455101 0.305991 0.5
760 2 0.475107 0.284189 0.5
761 2 0.500052 0.29386 0.5
762 2 0.495744 0.32815 0.5
763 1 0.742208 0.802818 0.5
764 2 0.748096 0.827153 0.5
765 2 0.71888 0.794979 0.5
766 2 0.765821 0.794775 0.5
767 2 0.717899 0.807888 0.5
768 2 0.760866 0.786014 0.5
769 1 0.166087 0.783756 0.5
770 2 0.14137 0.780216 0.5
771 2 0.16229 0.75901 0.5
772 2 0.187896 0.771735 0.5
773 2 0.185375 0.799813 0.5
774 2 0.153739 0.805506 0.5
775 1 0.75614 0.887227 0.5
776 2 0.74591 0.864446 0.5
777 2 0.775547 0.871791 0.5
778 2 0.774227 0.904475 0.5
779 2 0.74445 0.909568 0.5
780 2 0.731808 0.891208 0.5
781 1 0.0747673 0.711033 0.5
782 2 0.0512268 0.702839 0.5
783 2 0.0738158 0.686075 0.5
784 2 0.0962921 0.69846 0.5
785 2 0.0946802 0.726177 0.5
786 2 0.0648923 0.734034 0.5
787 1 0.655275 0.321144 0.5
788 2 0.650855 0.296589 0.5
789 2 0.671727 0.302484 0.5
790 2 0.679841 0.326073 0.5
791 2 0.653198 0.345923 0.5
792 2 0.630401 0.318294 0.5
793 1 0.0395163 0.656601 0.5
794 2 0.0209974 0.639912 0.5
795 2 0.0585683 0.640219 0.5
796 2 0.060126 0.671273 0.5
797 2 0.0357901 0.681276 0.5
798 2 0.0155862 0.663689 0.5
799 1 0.724921 0.178415 0.5
800 2 0.737275 0.15663 0.5
801 2 0.747462 0.188964 0.5
802 2 0.726189 0.203293 0.5
803 2 0.703202 0.191227 0.5
804 2 0.708262 0.159907 0.5
805 1 0.265623 0.631583 0.5
806 2 0.287454 0.619544 0.5
807 2 0.284803 0.647697 0.5
808 2 0.254895 0.654111 0.5
809 2 0.241383 0.625369 0.5
810 2 0.259572 0.607388 0.5
811 1 0.661257 0.450088 0.5
812 2 0.641447 0.434616 0.5
813 2 0.670837 0.427055 0.5
814 2 0.686147 0.453178 0.5
815 2 0.668852 0.474061 0.5
816 2 0.641173 0.465105 0.5
817 1 0.884274 0.700975 0.5
818 2 0.861331 0.690979 0.5
819 2 0.885225 0.676182 0.5
820 2 0.908327 0.694306 0.5
821 2 0.8958 0.723336 0.5
822 2 0.867224 0.719348 0.5
823 1 0.46388 0.970903 0.5
824 2 0.443387 0.956443 0.5
825 2 0.472766 0.947501 0.5
826 2 0.488729 0.968531 0.5
827 2 0.474861 0.993287 0.5
828 2 0.447633 0.98984 0.5
829 1 0.980672 0.180398 0.5
830 2 0.00292859 0.192513 0.5
831 2 0.957314 0.19002 0.5
832 2 0.97672 0.155562 0.5
833 2 0.987399 0.20451 0.5
834 2 0.957512 0.169465 0.5
835 1 0.127504 0.448235 0.5
836 2 0.132734 0.423935 0.5
837 2 0.152549 0.449047 0.5
838 2 0.138124 0.471281 0.5
839 2 0.109835 0.465885 0.5
840 2 0.106616 0.434241 0.5
841 1 0.0550909 0.120799 0.5
842 2 0.0408909 0.141114 0.5
843 2 0.0308538 0.114758 0.5
844 2 0.0496752 0.0963375 0.5
845 2 0.0781517 0.111698 0.5
846 2 0.070453 0.140651 0.5
847 1 0.65491 0.844471 0.5
848 2 0.629803 0.842328 0.5
849 2 0.658627 0.819829 0.5
850 2 0.679068 0.837868 0.5
851 2 0.672138 0.862356 0.5
852 2 0.643878 0.866774 0.5
853 1 0.908611 0.558893 0.5
854 2 0.883554 0.557393 0.5
855 2 0.900357 0.535227 0.5
856 2 0.932219 0.551205 0.5
857 2 0.919248 0.581586 0.5
858 2 0.896642 0.580999 0.5
859 1 0.324995 0.850008 0.5
860 2 0.300116 0.852491 0.5
861 2 0.313205 0.82796 0.5
862 2 0.343874 0.833609 0.5
863 2 0.346695 0.862318 0.5
864 2 0.318011 0.873976 0.5
865 1 0.725018 0.990948 0.5
866 2 0.701649 0.981906 0.5
867 2 0.736562 0.968909 0.5
868 2 0.749747 0.993737 0.5
869 2 0.73364 0.0144464 0.5
870 2 0.711094 0.0118111 0.5
871 1 0.795305 0.800567 0.5
872 2 0.773832 0.787949 0.5
873 2 0.802622 0.776772 0.5
874 2 0.819881 0.798951 0.5
875 2 0.807895 0.822019 0.5
876 2 0.774515 0.81368 0.5
877 1 0.853807 0.259742 0.5
878 2 0.853724 0.234783 0.5
879 2 0.876246 0.248609 0.5
880 2 0.869518 0.279279 0.5
881 2 0.846535 0.283746 0.5
882 2 0.83016 0.268261 0.5
883 1 0.0764498 0.515787 0.5
884 2 0.0732176 0.49113 0.5
885 2 0.0980467 0.503642 0.5
886 2 0.0925487 0.535082 0.5
887 2 0.0612528 0.535668 0.5
888 2 0.0538944 0.504711 0.5
889 1 0.506068 0.213889 0.5
890 2 0.525335 0.197697 0.5
891 2 0.51974 0.234779 0.5
892 2 0.489962 0.23286 0.5
893 2 0.482977 0.20433 0.5
894 2 0.501084 0.189485 0.5
895 1 0.704816 0.86647 0.5
896 2 0.681433 0.874742 0.5
897 2 0.718522 0.845258 0.5
898 2 0.71262 0.89034 0.5
899 2 0.682325 0.854924 0.5
900 2 0.726516 0.878126 0.5
901 1 0.672804 0.735421 0.5
902 2 0.648446 0.730328 0.5
903 2 0.663612 0.712065 0.5
904 2 0.687556 0.715153 0.5
905 2 0.695373 0.746743 0.5
906 2 0.665277 0.75954 0.5
907 1 0.216478 0.0982037 0.5
908 2 0.214483 0.0732988 0.5
909 2 0.240715 0.0919555 0.5
910 2 0.225252 0.121711 0.5
911 2 0.202531 0.118816 0.5
912 2 0.192025 0.0932972 0.5
913 1 0.00454922 0.465532 0.5
914 2 0.99133 0.444196 0.5
915 2 0.0237935 0.449624 0.5
916 2 0.0246671 0.480458 0.5
917 2 0.00137367 0.490407 0.5
918 2 0.979517 0.467731 0.5
919 1 0.768568 0.627167 0.5
920 2 0.753269 0.607271 0.5
921 2 0.779183 0.604233 0.5
922 2 0.79219 0.634765 0.5
923 2 0.764597 0.65195 0.5
924 2 0.743836 0.631015 0.5
925 1 0.557577 0.804726 0.5
926 2 0.537772 0.789378 0.5
927 2 0.565 0.780844 0.5
928 2 0.582703 0.804166 0.5
929 2 0.560684 0.829556 0.5
930 2 0.538322 0.820741 0.5
931 1 0.200521 0.381216 0.5
932 2 0.180714 0.366365 0.5
933 2 0.213619 0.359414 0.5
934 2 0.223774 0.389456 0.5
935 2 0.194905 0.405548 0.5
936 2 0.177007 0.389815 0.5
937 1 0.119425 0.880043 0.5
938 2 0.103586 0.86066 0.5
939 2 0.129579 0.857255 0.5
940 2 0.144317 0.88109 0.5
941 2 0.122637 0.90503 0.5
942 2 0.0956089 0.88776 0.5
943 1 0.39784 0.531187 0.5
944 2 0.381441 0.512449 0.5
945 2 0.412517 0.51094 0.5
946 2 0.420461 0.541628 0.5
947 2 0.396584 0.556194 0.5
948 2 0.37456 0.540628 0.5
949 1 0.0582234 0.919417 0.5
950 2 0.0502283 0.895723 0.5
951 2 0.0736161 0.899635 0.5
952 2 0.0809673 0.929843 0.5
953 2 0.0491051 0.94266 0.5
954 2 0.0332623 0.919316 0.5
955 1 0.352671 0.276952 0.5
956 2 0.336599 0.257397 0.5
957 2 0.373562 0.263353 0.5
958 2 0.375535 0.287032 0.5
959 2 0.344465 0.300678 0.5
960 2 0.329444 0.285852 0.5
961 1 0.171973 0.870236 0.5
962 2 0.151566 0.855692 0.5
963 2 0.179824 0.84642 0.5
964 2 0.19686 0.867913 0.5
965 2 0.181102 0.893443 0.5
966 2 0.149821 0.881877 0.5
967 1 0.881197 0.749786 0.5
968 2 0.868263 0.728298 0.5
969 2 0.894789 0.728851 0.5
970 2 0.905161 0.756146 0.5
971 2 0.877764 0.774509 0.5
972 2 0.857634 0.757704 0.5
973 1 0.0483444 0.321323 0.5
974 2 0.0442927 0.346212 0.5
975 2 0.0236201 0.319008 0.5
976 2 0.0529196 0.296805 0.5
977 2 0.0727458 0.314878 0.5
978 2 0.065727 0.338983 0.5
979 1 0.0949021 0.160459 0.5
980 2 0.0843893 0.137607 0.5
981 2 0.0946236 0.135332 0.5
982 2 0.11913 0.153334 0.5
983 2 0.110447 0.180242 0.5
984 2 0.0708947 0.165914 0.5
985 1 0.905856 0.806244 0.5
986 2 0.911967 0.781968 0.5
987 2 0.930845 0.805778 0.5
988 2 0.918808 0.827623 0.5
989 2 0.886096 0.821342 0.5
990 2 0.883008 0.796381 0.5
991 1 0.810249 0.969869 0.5
992 2 0.801809 0.946302 0.5
993 2 0.830449 0.954803 0.5
994 2 0.829424 0.98614 0.5
995 2 0.796635 0.990672 0.5
996 2 0.785433 0.966516 0.5
997 1 0.79605 0.396377 0.5
998 2 0.812166 0.377272 0.5
999 2 0.820638 0.400616 0.5
1000 2 0.798758 0.421264 0.5
1001 2 0.772468 0.40396 0.5
1002 2 0.780271 0.376985 0.5
1003 1 0.644903 0.541144 0.5
1004 2 0.629434 0.521448 0.5
1005 2 0.654511 0.518019 0.5
1006 2 0.668684 0.549936 0.5
1007 2 0.642495 0.565943 0.5
1008 2 0.62091 0.548628 0.5
1009 1 0.455931 0.920827 0.5
1010 2 0.435407 0.906824 0.5
1011 2 0.465625 0.897799 0.5
1012 2 0.480427 0.924418 0.5
1013 2 0.454774 0.945758 0.5
1014 2 0.4367 0.936771 0.5
1015 1 0.951549 0.699078 0.5
1016 2 0.938329 0.678004 0.5
1017 2 0.970114 0.682508 0.5
1018 2 0.971876 0.713702 0.5
1019 2 0.939725 0.720943 0.5
1020 2 0.926537 0.697348 0.5
1021 1 0.291939 0.367298 0.5
1022 2 0.27481 0.385512 0.5
1023 2 0.268404 0.358692 0.5
1024 2 0.297941 0.343023 0.5
1025 2 0.316689 0.36475 0.5
1026 2 0.296964 0.392023 0.5
1027 1 0.729939 0.476787 0.5
1028 2 0.71038 0.460954 0.5
1029 2 0.738268 0.453075 0.5
1030 2 0.754863 0.479085 0.5
1031 2 0.734582 0.501525 0.5
1032 2 0.706531 0.485398 0.5
1033 1 0.825885 0.62387 0.5
1034 2 0.824286 0.598949 0.5
1035 2 0.849816 0.616871 0.5
1036 2 0.840881 0.643795 0.5
1037 2 0.807637 0.64107 0.5
1038 2 0.806672 0.608119 0.5
1039 1 0.560742 0.924607 0.5
1040 2 0.581268 0.910719 0.5
1041 2 0.580448 0.939925 0.5
1042 2 0.549234 0.946968 0.5
1043 2 0.535847 0.927235 0.5
1044 2 0.544442 0.905253 0.5
1045 1 0.367856 0.194325 0.5
1046 2 0.342999 0.198228 0.5
1047 2 0.354303 0.173278 0.5
1048 2 0.379312 0.171886 0.5
1049 2 0.391805 0.202048 0.5
1050 2 0.363078 0.218927 0.5
1051 1 0.738771 0.312947 0.5
1052 2 0.752973 0.292394 0.5
1053 2 0.763217 0.317745 0.5
1054 2 0.738343 0.338076 0.5
1055 2 0.715791 0.322516 0.5
1056 2 0.724515 0.292549 0.5
1057 1 0.455835 0.803789 0.5
1058 2 0.433897 0.791712 0.5
1059 2 0.461678 0.779403 0.5
1060 2 0.480741 0.80176 0.5
1061 2 0.4645 0.827102 0.5
1062 2 0.438507 0.821803 0.5
1063 1 0.599254 0.855473 0.5
1064 2 0.592762 0.831457 0.5
1065 2 0.620995 0.842571 0.5